+ 0.4 0 1 tcp 40 ------- 1 0.0 1.0 0 0
- 0.4 0 1 tcp 40 ------- 1 0.0 1.0 0 0
r 0.6016 0 1 tcp 40 ------- 1 0.0 1.0 0 0
+ 0.6016 1 0 ack 40 ------- 1 1.0 0.0 0 1
- 0.6016 1 0 ack 40 ------- 1 1.0 0.0 0 1
r 0.8032 1 0 ack 40 ------- 1 1.0 0.0 0 1
+ 0.8032 0 1 tcp 1040 ------- 1 0.0 1.0 1 2
- 0.8032 0 1 tcp 1040 ------- 1 0.0 1.0 1 2
+ 0.8032 0 1 tcp 1040 ------- 1 0.0 1.0 2 3
- 0.8448 0 1 tcp 1040 ------- 1 0.0 1.0 2 3
r 1.0448 0 1 tcp 1040 ------- 1 0.0 1.0 1 2
+ 1.0448 1 0 ack 40 ------- 1 1.0 0.0 1 4
- 1.0448 1 0 ack 40 ------- 1 1.0 0.0 1 4
r 1.0864 0 1 tcp 1040 ------- 1 0.0 1.0 2 3
+ 1.0864 1 0 ack 40 ------- 1 1.0 0.0 2 5
- 1.0864 1 0 ack 40 ------- 1 1.0 0.0 2 5
r 1.2464 1 0 ack 40 ------- 1 1.0 0.0 1 4
+ 1.2464 0 1 tcp 1040 ------- 1 0.0 1.0 3 6
- 1.2464 0 1 tcp 1040 ------- 1 0.0 1.0 3 6
+ 1.2464 0 1 tcp 1040 ------- 1 0.0 1.0 4 7
r 1.288 1 0 ack 40 ------- 1 1.0 0.0 2 5
+ 1.288 0 1 tcp 1040 ------- 1 0.0 1.0 5 8
+ 1.288 0 1 tcp 1040 ------- 1 0.0 1.0 6 9
- 1.288 0 1 tcp 1040 ------- 1 0.0 1.0 4 7
- 1.3296 0 1 tcp 1040 ------- 1 0.0 1.0 5 8
- 1.3712 0 1 tcp 1040 ------- 1 0.0 1.0 6 9
r 1.488 0 1 tcp 1040 ------- 1 0.0 1.0 3 6
+ 1.488 1 0 ack 40 ------- 1 1.0 0.0 3 10
- 1.488 1 0 ack 40 ------- 1 1.0 0.0 3 10
r 1.5296 0 1 tcp 1040 ------- 1 0.0 1.0 4 7
+ 1.5296 1 0 ack 40 ------- 1 1.0 0.0 4 11
- 1.5296 1 0 ack 40 ------- 1 1.0 0.0 4 11
r 1.5712 0 1 tcp 1040 ------- 1 0.0 1.0 5 8
+ 1.5712 1 0 ack 40 ------- 1 1.0 0.0 5 12
- 1.5712 1 0 ack 40 ------- 1 1.0 0.0 5 12
r 1.6128 0 1 tcp 1040 ------- 1 0.0 1.0 6 9
+ 1.6128 1 0 ack 40 ------- 1 1.0 0.0 6 13
- 1.6128 1 0 ack 40 ------- 1 1.0 0.0 6 13
r 1.6896 1 0 ack 40 ------- 1 1.0 0.0 3 10
+ 1.6896 0 1 tcp 1040 ------- 1 0.0 1.0 7 14
- 1.6896 0 1 tcp 1040 ------- 1 0.0 1.0 7 14
r 1.7312 1 0 ack 40 ------- 1 1.0 0.0 4 11
+ 1.7312 0 1 tcp 1040 ------- 1 0.0 1.0 8 15
- 1.7312 0 1 tcp 1040 ------- 1 0.0 1.0 8 15
r 1.7728 1 0 ack 40 ------- 1 1.0 0.0 5 12
+ 1.7728 0 1 tcp 1040 ------- 1 0.0 1.0 9 16
- 1.7728 0 1 tcp 1040 ------- 1 0.0 1.0 9 16
r 1.8144 1 0 ack 40 ------- 1 1.0 0.0 6 13
+ 1.8144 0 1 tcp 1040 ------- 1 0.0 1.0 10 17
- 1.8144 0 1 tcp 1040 ------- 1 0.0 1.0 10 17
r 1.9312 0 1 tcp 1040 ------- 1 0.0 1.0 7 14
+ 1.9312 1 0 ack 40 ------- 1 1.0 0.0 7 18
- 1.9312 1 0 ack 40 ------- 1 1.0 0.0 7 18
r 1.9728 0 1 tcp 1040 ------- 1 0.0 1.0 8 15
+ 1.9728 1 0 ack 40 ------- 1 1.0 0.0 8 19
- 1.9728 1 0 ack 40 ------- 1 1.0 0.0 8 19
r 2.0144 0 1 tcp 1040 ------- 1 0.0 1.0 9 16
r 2.056 0 1 tcp 1040 ------- 1 0.0 1.0 10 17
r 2.1328 1 0 ack 40 ------- 1 1.0 0.0 7 18
r 2.1744 1 0 ack 40 ------- 1 1.0 0.0 8 19
