V -t * -v 1.0a5 -a 0
A -t * -n 1 -p 0 -o 0x7fffffff -c 30 -a 1
A -t * -h 1 -m 1073741823 -s 0
c -t * -i 0 -n red
c -t * -i 1 -n blue
c -t * -i 2 -n yellow
c -t * -i 3 -n green
n -t * -a 4 -s 4 -S UP -v circle -c black -i black
n -t * -a 0 -s 0 -S UP -v circle -c black -i black
n -t * -a 5 -s 5 -S UP -v circle -c black -i black
n -t * -a 1 -s 1 -S UP -v circle -c black -i black
n -t * -a 2 -s 2 -S UP -v circle -c black -i black
n -t * -a 3 -s 3 -S UP -v circle -c black -i black
l -t * -s 0 -d 2 -S UP -r 5000000 -D 0.002 -c black -o right-up
l -t * -s 1 -d 2 -S UP -r 5000000 -D 0.002 -c black -o right-down
l -t * -s 2 -d 3 -S UP -r 1500000 -D 0.01 -c black -o right
l -t * -s 2 -d 5 -S UP -r 1500000 -D 0.01 -c black -o right-down
l -t * -s 3 -d 4 -S UP -r 1500000 -D 0.01 -c black -o up
+ -t 1 -s 0 -d 2 -p cbr -e 210 -c 0 -i 0 -a 0 -x {0.0 3.1 0 ------- null}
- -t 1 -s 0 -d 2 -p cbr -e 210 -c 0 -i 0 -a 0 -x {0.0 3.1 0 ------- null}
h -t 1 -s 0 -d 2 -p cbr -e 210 -c 0 -i 0 -a 0 -x {0.0 3.1 -1 ------- null}
r -t 1.002336 -s 0 -d 2 -p cbr -e 210 -c 0 -i 0 -a 0 -x {0.0 3.1 0 ------- null}
+ -t 1.002336 -s 2 -d 3 -p cbr -e 210 -c 0 -i 0 -a 0 -x {0.0 3.1 0 ------- null}
- -t 1.002336 -s 2 -d 3 -p cbr -e 210 -c 0 -i 0 -a 0 -x {0.0 3.1 0 ------- null}
h -t 1.002336 -s 2 -d 3 -p cbr -e 210 -c 0 -i 0 -a 0 -x {0.0 3.1 -1 ------- null}
+ -t 1.00375 -s 0 -d 2 -p cbr -e 210 -c 0 -i 1 -a 0 -x {0.0 3.1 1 ------- null}
- -t 1.00375 -s 0 -d 2 -p cbr -e 210 -c 0 -i 1 -a 0 -x {0.0 3.1 1 ------- null}
h -t 1.00375 -s 0 -d 2 -p cbr -e 210 -c 0 -i 1 -a 0 -x {0.0 3.1 -1 ------- null}
r -t 1.006086 -s 0 -d 2 -p cbr -e 210 -c 0 -i 1 -a 0 -x {0.0 3.1 1 ------- null}
+ -t 1.006086 -s 2 -d 3 -p cbr -e 210 -c 0 -i 1 -a 0 -x {0.0 3.1 1 ------- null}
- -t 1.006086 -s 2 -d 3 -p cbr -e 210 -c 0 -i 1 -a 0 -x {0.0 3.1 1 ------- null}
h -t 1.006086 -s 2 -d 3 -p cbr -e 210 -c 0 -i 1 -a 0 -x {0.0 3.1 -1 ------- null}
+ -t 1.0075 -s 0 -d 2 -p cbr -e 210 -c 0 -i 2 -a 0 -x {0.0 3.1 2 ------- null}
- -t 1.0075 -s 0 -d 2 -p cbr -e 210 -c 0 -i 2 -a 0 -x {0.0 3.1 2 ------- null}
h -t 1.0075 -s 0 -d 2 -p cbr -e 210 -c 0 -i 2 -a 0 -x {0.0 3.1 -1 ------- null}
r -t 1.009836 -s 0 -d 2 -p cbr -e 210 -c 0 -i 2 -a 0 -x {0.0 3.1 2 ------- null}
+ -t 1.009836 -s 2 -d 3 -p cbr -e 210 -c 0 -i 2 -a 0 -x {0.0 3.1 2 ------- null}
- -t 1.009836 -s 2 -d 3 -p cbr -e 210 -c 0 -i 2 -a 0 -x {0.0 3.1 2 ------- null}
h -t 1.009836 -s 2 -d 3 -p cbr -e 210 -c 0 -i 2 -a 0 -x {0.0 3.1 -1 ------- null}
+ -t 1.01125 -s 0 -d 2 -p cbr -e 210 -c 0 -i 3 -a 0 -x {0.0 3.1 3 ------- null}
- -t 1.01125 -s 0 -d 2 -p cbr -e 210 -c 0 -i 3 -a 0 -x {0.0 3.1 3 ------- null}
h -t 1.01125 -s 0 -d 2 -p cbr -e 210 -c 0 -i 3 -a 0 -x {0.0 3.1 -1 ------- null}
r -t 1.013456 -s 2 -d 3 -p cbr -e 210 -c 0 -i 0 -a 0 -x {0.0 3.1 0 ------- null}
r -t 1.013586 -s 0 -d 2 -p cbr -e 210 -c 0 -i 3 -a 0 -x {0.0 3.1 3 ------- null}
+ -t 1.013586 -s 2 -d 3 -p cbr -e 210 -c 0 -i 3 -a 0 -x {0.0 3.1 3 ------- null}
- -t 1.013586 -s 2 -d 3 -p cbr -e 210 -c 0 -i 3 -a 0 -x {0.0 3.1 3 ------- null}
h -t 1.013586 -s 2 -d 3 -p cbr -e 210 -c 0 -i 3 -a 0 -x {0.0 3.1 -1 ------- null}
+ -t 1.015 -s 0 -d 2 -p cbr -e 210 -c 0 -i 4 -a 0 -x {0.0 3.1 4 ------- null}
- -t 1.015 -s 0 -d 2 -p cbr -e 210 -c 0 -i 4 -a 0 -x {0.0 3.1 4 ------- null}
h -t 1.015 -s 0 -d 2 -p cbr -e 210 -c 0 -i 4 -a 0 -x {0.0 3.1 -1 ------- null}
r -t 1.017206 -s 2 -d 3 -p cbr -e 210 -c 0 -i 1 -a 0 -x {0.0 3.1 1 ------- null}
r -t 1.017336 -s 0 -d 2 -p cbr -e 210 -c 0 -i 4 -a 0 -x {0.0 3.1 4 ------- null}
+ -t 1.017336 -s 2 -d 3 -p cbr -e 210 -c 0 -i 4 -a 0 -x {0.0 3.1 4 ------- null}
- -t 1.017336 -s 2 -d 3 -p cbr -e 210 -c 0 -i 4 -a 0 -x {0.0 3.1 4 ------- null}
h -t 1.017336 -s 2 -d 3 -p cbr -e 210 -c 0 -i 4 -a 0 -x {0.0 3.1 -1 ------- null}
+ -t 1.01875 -s 0 -d 2 -p cbr -e 210 -c 0 -i 5 -a 0 -x {0.0 3.1 5 ------- null}
- -t 1.01875 -s 0 -d 2 -p cbr -e 210 -c 0 -i 5 -a 0 -x {0.0 3.1 5 ------- null}
h -t 1.01875 -s 0 -d 2 -p cbr -e 210 -c 0 -i 5 -a 0 -x {0.0 3.1 -1 ------- null}
r -t 1.020956 -s 2 -d 3 -p cbr -e 210 -c 0 -i 2 -a 0 -x {0.0 3.1 2 ------- null}
r -t 1.021086 -s 0 -d 2 -p cbr -e 210 -c 0 -i 5 -a 0 -x {0.0 3.1 5 ------- null}
+ -t 1.021086 -s 2 -d 3 -p cbr -e 210 -c 0 -i 5 -a 0 -x {0.0 3.1 5 ------- null}
- -t 1.021086 -s 2 -d 3 -p cbr -e 210 -c 0 -i 5 -a 0 -x {0.0 3.1 5 ------- null}
h -t 1.021086 -s 2 -d 3 -p cbr -e 210 -c 0 -i 5 -a 0 -x {0.0 3.1 -1 ------- null}
+ -t 1.0225 -s 0 -d 2 -p cbr -e 210 -c 0 -i 6 -a 0 -x {0.0 3.1 6 ------- null}
- -t 1.0225 -s 0 -d 2 -p cbr -e 210 -c 0 -i 6 -a 0 -x {0.0 3.1 6 ------- null}
h -t 1.0225 -s 0 -d 2 -p cbr -e 210 -c 0 -i 6 -a 0 -x {0.0 3.1 -1 ------- null}
r -t 1.024706 -s 2 -d 3 -p cbr -e 210 -c 0 -i 3 -a 0 -x {0.0 3.1 3 ------- null}
r -t 1.024836 -s 0 -d 2 -p cbr -e 210 -c 0 -i 6 -a 0 -x {0.0 3.1 6 ------- null}
+ -t 1.024836 -s 2 -d 3 -p cbr -e 210 -c 0 -i 6 -a 0 -x {0.0 3.1 6 ------- null}
- -t 1.024836 -s 2 -d 3 -p cbr -e 210 -c 0 -i 6 -a 0 -x {0.0 3.1 6 ------- null}
h -t 1.024836 -s 2 -d 3 -p cbr -e 210 -c 0 -i 6 -a 0 -x {0.0 3.1 -1 ------- null}
+ -t 1.02625 -s 0 -d 2 -p cbr -e 210 -c 0 -i 7 -a 0 -x {0.0 3.1 7 ------- null}
- -t 1.02625 -s 0 -d 2 -p cbr -e 210 -c 0 -i 7 -a 0 -x {0.0 3.1 7 ------- null}
h -t 1.02625 -s 0 -d 2 -p cbr -e 210 -c 0 -i 7 -a 0 -x {0.0 3.1 -1 ------- null}
r -t 1.028456 -s 2 -d 3 -p cbr -e 210 -c 0 -i 4 -a 0 -x {0.0 3.1 4 ------- null}
r -t 1.028586 -s 0 -d 2 -p cbr -e 210 -c 0 -i 7 -a 0 -x {0.0 3.1 7 ------- null}
+ -t 1.028586 -s 2 -d 3 -p cbr -e 210 -c 0 -i 7 -a 0 -x {0.0 3.1 7 ------- null}
- -t 1.028586 -s 2 -d 3 -p cbr -e 210 -c 0 -i 7 -a 0 -x {0.0 3.1 7 ------- null}
h -t 1.028586 -s 2 -d 3 -p cbr -e 210 -c 0 -i 7 -a 0 -x {0.0 3.1 -1 ------- null}
+ -t 1.03 -s 0 -d 2 -p cbr -e 210 -c 0 -i 8 -a 0 -x {0.0 3.1 8 ------- null}
- -t 1.03 -s 0 -d 2 -p cbr -e 210 -c 0 -i 8 -a 0 -x {0.0 3.1 8 ------- null}
h -t 1.03 -s 0 -d 2 -p cbr -e 210 -c 0 -i 8 -a 0 -x {0.0 3.1 -1 ------- null}
r -t 1.032206 -s 2 -d 3 -p cbr -e 210 -c 0 -i 5 -a 0 -x {0.0 3.1 5 ------- null}
r -t 1.032336 -s 0 -d 2 -p cbr -e 210 -c 0 -i 8 -a 0 -x {0.0 3.1 8 ------- null}
+ -t 1.032336 -s 2 -d 3 -p cbr -e 210 -c 0 -i 8 -a 0 -x {0.0 3.1 8 ------- null}
- -t 1.032336 -s 2 -d 3 -p cbr -e 210 -c 0 -i 8 -a 0 -x {0.0 3.1 8 ------- null}
h -t 1.032336 -s 2 -d 3 -p cbr -e 210 -c 0 -i 8 -a 0 -x {0.0 3.1 -1 ------- null}
+ -t 1.03375 -s 0 -d 2 -p cbr -e 210 -c 0 -i 9 -a 0 -x {0.0 3.1 9 ------- null}
- -t 1.03375 -s 0 -d 2 -p cbr -e 210 -c 0 -i 9 -a 0 -x {0.0 3.1 9 ------- null}
h -t 1.03375 -s 0 -d 2 -p cbr -e 210 -c 0 -i 9 -a 0 -x {0.0 3.1 -1 ------- null}
r -t 1.035956 -s 2 -d 3 -p cbr -e 210 -c 0 -i 6 -a 0 -x {0.0 3.1 6 ------- null}
r -t 1.036086 -s 0 -d 2 -p cbr -e 210 -c 0 -i 9 -a 0 -x {0.0 3.1 9 ------- null}
+ -t 1.036086 -s 2 -d 3 -p cbr -e 210 -c 0 -i 9 -a 0 -x {0.0 3.1 9 ------- null}
- -t 1.036086 -s 2 -d 3 -p cbr -e 210 -c 0 -i 9 -a 0 -x {0.0 3.1 9 ------- null}
h -t 1.036086 -s 2 -d 3 -p cbr -e 210 -c 0 -i 9 -a 0 -x {0.0 3.1 -1 ------- null}
+ -t 1.0375 -s 0 -d 2 -p cbr -e 210 -c 0 -i 10 -a 0 -x {0.0 3.1 10 ------- null}
- -t 1.0375 -s 0 -d 2 -p cbr -e 210 -c 0 -i 10 -a 0 -x {0.0 3.1 10 ------- null}
h -t 1.0375 -s 0 -d 2 -p cbr -e 210 -c 0 -i 10 -a 0 -x {0.0 3.1 -1 ------- null}
r -t 1.039706 -s 2 -d 3 -p cbr -e 210 -c 0 -i 7 -a 0 -x {0.0 3.1 7 ------- null}
r -t 1.039836 -s 0 -d 2 -p cbr -e 210 -c 0 -i 10 -a 0 -x {0.0 3.1 10 ------- null}
+ -t 1.039836 -s 2 -d 3 -p cbr -e 210 -c 0 -i 10 -a 0 -x {0.0 3.1 10 ------- null}
- -t 1.039836 -s 2 -d 3 -p cbr -e 210 -c 0 -i 10 -a 0 -x {0.0 3.1 10 ------- null}
h -t 1.039836 -s 2 -d 3 -p cbr -e 210 -c 0 -i 10 -a 0 -x {0.0 3.1 -1 ------- null}
+ -t 1.04125 -s 0 -d 2 -p cbr -e 210 -c 0 -i 11 -a 0 -x {0.0 3.1 11 ------- null}
- -t 1.04125 -s 0 -d 2 -p cbr -e 210 -c 0 -i 11 -a 0 -x {0.0 3.1 11 ------- null}
h -t 1.04125 -s 0 -d 2 -p cbr -e 210 -c 0 -i 11 -a 0 -x {0.0 3.1 -1 ------- null}
r -t 1.043456 -s 2 -d 3 -p cbr -e 210 -c 0 -i 8 -a 0 -x {0.0 3.1 8 ------- null}
r -t 1.043586 -s 0 -d 2 -p cbr -e 210 -c 0 -i 11 -a 0 -x {0.0 3.1 11 ------- null}
+ -t 1.043586 -s 2 -d 3 -p cbr -e 210 -c 0 -i 11 -a 0 -x {0.0 3.1 11 ------- null}
- -t 1.043586 -s 2 -d 3 -p cbr -e 210 -c 0 -i 11 -a 0 -x {0.0 3.1 11 ------- null}
h -t 1.043586 -s 2 -d 3 -p cbr -e 210 -c 0 -i 11 -a 0 -x {0.0 3.1 -1 ------- null}
+ -t 1.045 -s 0 -d 2 -p cbr -e 210 -c 0 -i 12 -a 0 -x {0.0 3.1 12 ------- null}
- -t 1.045 -s 0 -d 2 -p cbr -e 210 -c 0 -i 12 -a 0 -x {0.0 3.1 12 ------- null}
h -t 1.045 -s 0 -d 2 -p cbr -e 210 -c 0 -i 12 -a 0 -x {0.0 3.1 -1 ------- null}
r -t 1.047206 -s 2 -d 3 -p cbr -e 210 -c 0 -i 9 -a 0 -x {0.0 3.1 9 ------- null}
r -t 1.047336 -s 0 -d 2 -p cbr -e 210 -c 0 -i 12 -a 0 -x {0.0 3.1 12 ------- null}
+ -t 1.047336 -s 2 -d 3 -p cbr -e 210 -c 0 -i 12 -a 0 -x {0.0 3.1 12 ------- null}
- -t 1.047336 -s 2 -d 3 -p cbr -e 210 -c 0 -i 12 -a 0 -x {0.0 3.1 12 ------- null}
h -t 1.047336 -s 2 -d 3 -p cbr -e 210 -c 0 -i 12 -a 0 -x {0.0 3.1 -1 ------- null}
+ -t 1.04875 -s 0 -d 2 -p cbr -e 210 -c 0 -i 13 -a 0 -x {0.0 3.1 13 ------- null}
- -t 1.04875 -s 0 -d 2 -p cbr -e 210 -c 0 -i 13 -a 0 -x {0.0 3.1 13 ------- null}
h -t 1.04875 -s 0 -d 2 -p cbr -e 210 -c 0 -i 13 -a 0 -x {0.0 3.1 -1 ------- null}
v -t 1.05 -e sim_annotation 1.05 1 Send Packet1
r -t 1.050956 -s 2 -d 3 -p cbr -e 210 -c 0 -i 10 -a 0 -x {0.0 3.1 10 ------- null}
r -t 1.051086 -s 0 -d 2 -p cbr -e 210 -c 0 -i 13 -a 0 -x {0.0 3.1 13 ------- null}
+ -t 1.051086 -s 2 -d 3 -p cbr -e 210 -c 0 -i 13 -a 0 -x {0.0 3.1 13 ------- null}
- -t 1.051086 -s 2 -d 3 -p cbr -e 210 -c 0 -i 13 -a 0 -x {0.0 3.1 13 ------- null}
h -t 1.051086 -s 2 -d 3 -p cbr -e 210 -c 0 -i 13 -a 0 -x {0.0 3.1 -1 ------- null}
+ -t 1.0525 -s 0 -d 2 -p cbr -e 210 -c 0 -i 14 -a 0 -x {0.0 3.1 14 ------- null}
- -t 1.0525 -s 0 -d 2 -p cbr -e 210 -c 0 -i 14 -a 0 -x {0.0 3.1 14 ------- null}
h -t 1.0525 -s 0 -d 2 -p cbr -e 210 -c 0 -i 14 -a 0 -x {0.0 3.1 -1 ------- null}
r -t 1.054706 -s 2 -d 3 -p cbr -e 210 -c 0 -i 11 -a 0 -x {0.0 3.1 11 ------- null}
r -t 1.054836 -s 0 -d 2 -p cbr -e 210 -c 0 -i 14 -a 0 -x {0.0 3.1 14 ------- null}
+ -t 1.054836 -s 2 -d 3 -p cbr -e 210 -c 0 -i 14 -a 0 -x {0.0 3.1 14 ------- null}
- -t 1.054836 -s 2 -d 3 -p cbr -e 210 -c 0 -i 14 -a 0 -x {0.0 3.1 14 ------- null}
h -t 1.054836 -s 2 -d 3 -p cbr -e 210 -c 0 -i 14 -a 0 -x {0.0 3.1 -1 ------- null}
+ -t 1.05625 -s 0 -d 2 -p cbr -e 210 -c 0 -i 15 -a 0 -x {0.0 3.1 15 ------- null}
- -t 1.05625 -s 0 -d 2 -p cbr -e 210 -c 0 -i 15 -a 0 -x {0.0 3.1 15 ------- null}
h -t 1.05625 -s 0 -d 2 -p cbr -e 210 -c 0 -i 15 -a 0 -x {0.0 3.1 -1 ------- null}
r -t 1.058456 -s 2 -d 3 -p cbr -e 210 -c 0 -i 12 -a 0 -x {0.0 3.1 12 ------- null}
r -t 1.058586 -s 0 -d 2 -p cbr -e 210 -c 0 -i 15 -a 0 -x {0.0 3.1 15 ------- null}
+ -t 1.058586 -s 2 -d 3 -p cbr -e 210 -c 0 -i 15 -a 0 -x {0.0 3.1 15 ------- null}
- -t 1.058586 -s 2 -d 3 -p cbr -e 210 -c 0 -i 15 -a 0 -x {0.0 3.1 15 ------- null}
h -t 1.058586 -s 2 -d 3 -p cbr -e 210 -c 0 -i 15 -a 0 -x {0.0 3.1 -1 ------- null}
+ -t 1.06 -s 0 -d 2 -p cbr -e 210 -c 0 -i 16 -a 0 -x {0.0 3.1 16 ------- null}
- -t 1.06 -s 0 -d 2 -p cbr -e 210 -c 0 -i 16 -a 0 -x {0.0 3.1 16 ------- null}
h -t 1.06 -s 0 -d 2 -p cbr -e 210 -c 0 -i 16 -a 0 -x {0.0 3.1 -1 ------- null}
r -t 1.062206 -s 2 -d 3 -p cbr -e 210 -c 0 -i 13 -a 0 -x {0.0 3.1 13 ------- null}
r -t 1.062336 -s 0 -d 2 -p cbr -e 210 -c 0 -i 16 -a 0 -x {0.0 3.1 16 ------- null}
+ -t 1.062336 -s 2 -d 3 -p cbr -e 210 -c 0 -i 16 -a 0 -x {0.0 3.1 16 ------- null}
- -t 1.062336 -s 2 -d 3 -p cbr -e 210 -c 0 -i 16 -a 0 -x {0.0 3.1 16 ------- null}
h -t 1.062336 -s 2 -d 3 -p cbr -e 210 -c 0 -i 16 -a 0 -x {0.0 3.1 -1 ------- null}
+ -t 1.06375 -s 0 -d 2 -p cbr -e 210 -c 0 -i 17 -a 0 -x {0.0 3.1 17 ------- null}
- -t 1.06375 -s 0 -d 2 -p cbr -e 210 -c 0 -i 17 -a 0 -x {0.0 3.1 17 ------- null}
h -t 1.06375 -s 0 -d 2 -p cbr -e 210 -c 0 -i 17 -a 0 -x {0.0 3.1 -1 ------- null}
r -t 1.065956 -s 2 -d 3 -p cbr -e 210 -c 0 -i 14 -a 0 -x {0.0 3.1 14 ------- null}
r -t 1.066086 -s 0 -d 2 -p cbr -e 210 -c 0 -i 17 -a 0 -x {0.0 3.1 17 ------- null}
+ -t 1.066086 -s 2 -d 3 -p cbr -e 210 -c 0 -i 17 -a 0 -x {0.0 3.1 17 ------- null}
- -t 1.066086 -s 2 -d 3 -p cbr -e 210 -c 0 -i 17 -a 0 -x {0.0 3.1 17 ------- null}
h -t 1.066086 -s 2 -d 3 -p cbr -e 210 -c 0 -i 17 -a 0 -x {0.0 3.1 -1 ------- null}
+ -t 1.0675 -s 0 -d 2 -p cbr -e 210 -c 0 -i 18 -a 0 -x {0.0 3.1 18 ------- null}
- -t 1.0675 -s 0 -d 2 -p cbr -e 210 -c 0 -i 18 -a 0 -x {0.0 3.1 18 ------- null}
h -t 1.0675 -s 0 -d 2 -p cbr -e 210 -c 0 -i 18 -a 0 -x {0.0 3.1 -1 ------- null}
r -t 1.069706 -s 2 -d 3 -p cbr -e 210 -c 0 -i 15 -a 0 -x {0.0 3.1 15 ------- null}
r -t 1.069836 -s 0 -d 2 -p cbr -e 210 -c 0 -i 18 -a 0 -x {0.0 3.1 18 ------- null}
+ -t 1.069836 -s 2 -d 3 -p cbr -e 210 -c 0 -i 18 -a 0 -x {0.0 3.1 18 ------- null}
- -t 1.069836 -s 2 -d 3 -p cbr -e 210 -c 0 -i 18 -a 0 -x {0.0 3.1 18 ------- null}
h -t 1.069836 -s 2 -d 3 -p cbr -e 210 -c 0 -i 18 -a 0 -x {0.0 3.1 -1 ------- null}
+ -t 1.07125 -s 0 -d 2 -p cbr -e 210 -c 0 -i 19 -a 0 -x {0.0 3.1 19 ------- null}
- -t 1.07125 -s 0 -d 2 -p cbr -e 210 -c 0 -i 19 -a 0 -x {0.0 3.1 19 ------- null}
h -t 1.07125 -s 0 -d 2 -p cbr -e 210 -c 0 -i 19 -a 0 -x {0.0 3.1 -1 ------- null}
r -t 1.073456 -s 2 -d 3 -p cbr -e 210 -c 0 -i 16 -a 0 -x {0.0 3.1 16 ------- null}
r -t 1.073586 -s 0 -d 2 -p cbr -e 210 -c 0 -i 19 -a 0 -x {0.0 3.1 19 ------- null}
+ -t 1.073586 -s 2 -d 3 -p cbr -e 210 -c 0 -i 19 -a 0 -x {0.0 3.1 19 ------- null}
- -t 1.073586 -s 2 -d 3 -p cbr -e 210 -c 0 -i 19 -a 0 -x {0.0 3.1 19 ------- null}
h -t 1.073586 -s 2 -d 3 -p cbr -e 210 -c 0 -i 19 -a 0 -x {0.0 3.1 -1 ------- null}
+ -t 1.075 -s 0 -d 2 -p cbr -e 210 -c 0 -i 20 -a 0 -x {0.0 3.1 20 ------- null}
- -t 1.075 -s 0 -d 2 -p cbr -e 210 -c 0 -i 20 -a 0 -x {0.0 3.1 20 ------- null}
h -t 1.075 -s 0 -d 2 -p cbr -e 210 -c 0 -i 20 -a 0 -x {0.0 3.1 -1 ------- null}
r -t 1.077206 -s 2 -d 3 -p cbr -e 210 -c 0 -i 17 -a 0 -x {0.0 3.1 17 ------- null}
r -t 1.077336 -s 0 -d 2 -p cbr -e 210 -c 0 -i 20 -a 0 -x {0.0 3.1 20 ------- null}
+ -t 1.077336 -s 2 -d 3 -p cbr -e 210 -c 0 -i 20 -a 0 -x {0.0 3.1 20 ------- null}
- -t 1.077336 -s 2 -d 3 -p cbr -e 210 -c 0 -i 20 -a 0 -x {0.0 3.1 20 ------- null}
h -t 1.077336 -s 2 -d 3 -p cbr -e 210 -c 0 -i 20 -a 0 -x {0.0 3.1 -1 ------- null}
+ -t 1.07875 -s 0 -d 2 -p cbr -e 210 -c 0 -i 21 -a 0 -x {0.0 3.1 21 ------- null}
- -t 1.07875 -s 0 -d 2 -p cbr -e 210 -c 0 -i 21 -a 0 -x {0.0 3.1 21 ------- null}
h -t 1.07875 -s 0 -d 2 -p cbr -e 210 -c 0 -i 21 -a 0 -x {0.0 3.1 -1 ------- null}
r -t 1.080956 -s 2 -d 3 -p cbr -e 210 -c 0 -i 18 -a 0 -x {0.0 3.1 18 ------- null}
r -t 1.081086 -s 0 -d 2 -p cbr -e 210 -c 0 -i 21 -a 0 -x {0.0 3.1 21 ------- null}
+ -t 1.081086 -s 2 -d 3 -p cbr -e 210 -c 0 -i 21 -a 0 -x {0.0 3.1 21 ------- null}
- -t 1.081086 -s 2 -d 3 -p cbr -e 210 -c 0 -i 21 -a 0 -x {0.0 3.1 21 ------- null}
h -t 1.081086 -s 2 -d 3 -p cbr -e 210 -c 0 -i 21 -a 0 -x {0.0 3.1 -1 ------- null}
+ -t 1.0825 -s 0 -d 2 -p cbr -e 210 -c 0 -i 22 -a 0 -x {0.0 3.1 22 ------- null}
- -t 1.0825 -s 0 -d 2 -p cbr -e 210 -c 0 -i 22 -a 0 -x {0.0 3.1 22 ------- null}
h -t 1.0825 -s 0 -d 2 -p cbr -e 210 -c 0 -i 22 -a 0 -x {0.0 3.1 -1 ------- null}
r -t 1.084706 -s 2 -d 3 -p cbr -e 210 -c 0 -i 19 -a 0 -x {0.0 3.1 19 ------- null}
r -t 1.084836 -s 0 -d 2 -p cbr -e 210 -c 0 -i 22 -a 0 -x {0.0 3.1 22 ------- null}
+ -t 1.084836 -s 2 -d 3 -p cbr -e 210 -c 0 -i 22 -a 0 -x {0.0 3.1 22 ------- null}
- -t 1.084836 -s 2 -d 3 -p cbr -e 210 -c 0 -i 22 -a 0 -x {0.0 3.1 22 ------- null}
h -t 1.084836 -s 2 -d 3 -p cbr -e 210 -c 0 -i 22 -a 0 -x {0.0 3.1 -1 ------- null}
+ -t 1.08625 -s 0 -d 2 -p cbr -e 210 -c 0 -i 23 -a 0 -x {0.0 3.1 23 ------- null}
- -t 1.08625 -s 0 -d 2 -p cbr -e 210 -c 0 -i 23 -a 0 -x {0.0 3.1 23 ------- null}
h -t 1.08625 -s 0 -d 2 -p cbr -e 210 -c 0 -i 23 -a 0 -x {0.0 3.1 -1 ------- null}
r -t 1.088456 -s 2 -d 3 -p cbr -e 210 -c 0 -i 20 -a 0 -x {0.0 3.1 20 ------- null}
r -t 1.088586 -s 0 -d 2 -p cbr -e 210 -c 0 -i 23 -a 0 -x {0.0 3.1 23 ------- null}
+ -t 1.088586 -s 2 -d 3 -p cbr -e 210 -c 0 -i 23 -a 0 -x {0.0 3.1 23 ------- null}
- -t 1.088586 -s 2 -d 3 -p cbr -e 210 -c 0 -i 23 -a 0 -x {0.0 3.1 23 ------- null}
h -t 1.088586 -s 2 -d 3 -p cbr -e 210 -c 0 -i 23 -a 0 -x {0.0 3.1 -1 ------- null}
+ -t 1.09 -s 0 -d 2 -p cbr -e 210 -c 0 -i 24 -a 0 -x {0.0 3.1 24 ------- null}
- -t 1.09 -s 0 -d 2 -p cbr -e 210 -c 0 -i 24 -a 0 -x {0.0 3.1 24 ------- null}
h -t 1.09 -s 0 -d 2 -p cbr -e 210 -c 0 -i 24 -a 0 -x {0.0 3.1 -1 ------- null}
r -t 1.092206 -s 2 -d 3 -p cbr -e 210 -c 0 -i 21 -a 0 -x {0.0 3.1 21 ------- null}
r -t 1.092336 -s 0 -d 2 -p cbr -e 210 -c 0 -i 24 -a 0 -x {0.0 3.1 24 ------- null}
+ -t 1.092336 -s 2 -d 3 -p cbr -e 210 -c 0 -i 24 -a 0 -x {0.0 3.1 24 ------- null}
- -t 1.092336 -s 2 -d 3 -p cbr -e 210 -c 0 -i 24 -a 0 -x {0.0 3.1 24 ------- null}
h -t 1.092336 -s 2 -d 3 -p cbr -e 210 -c 0 -i 24 -a 0 -x {0.0 3.1 -1 ------- null}
+ -t 1.09375 -s 0 -d 2 -p cbr -e 210 -c 0 -i 25 -a 0 -x {0.0 3.1 25 ------- null}
- -t 1.09375 -s 0 -d 2 -p cbr -e 210 -c 0 -i 25 -a 0 -x {0.0 3.1 25 ------- null}
h -t 1.09375 -s 0 -d 2 -p cbr -e 210 -c 0 -i 25 -a 0 -x {0.0 3.1 -1 ------- null}
r -t 1.095956 -s 2 -d 3 -p cbr -e 210 -c 0 -i 22 -a 0 -x {0.0 3.1 22 ------- null}
r -t 1.096086 -s 0 -d 2 -p cbr -e 210 -c 0 -i 25 -a 0 -x {0.0 3.1 25 ------- null}
+ -t 1.096086 -s 2 -d 3 -p cbr -e 210 -c 0 -i 25 -a 0 -x {0.0 3.1 25 ------- null}
- -t 1.096086 -s 2 -d 3 -p cbr -e 210 -c 0 -i 25 -a 0 -x {0.0 3.1 25 ------- null}
h -t 1.096086 -s 2 -d 3 -p cbr -e 210 -c 0 -i 25 -a 0 -x {0.0 3.1 -1 ------- null}
+ -t 1.0975 -s 0 -d 2 -p cbr -e 210 -c 0 -i 26 -a 0 -x {0.0 3.1 26 ------- null}
- -t 1.0975 -s 0 -d 2 -p cbr -e 210 -c 0 -i 26 -a 0 -x {0.0 3.1 26 ------- null}
h -t 1.0975 -s 0 -d 2 -p cbr -e 210 -c 0 -i 26 -a 0 -x {0.0 3.1 -1 ------- null}
r -t 1.099706 -s 2 -d 3 -p cbr -e 210 -c 0 -i 23 -a 0 -x {0.0 3.1 23 ------- null}
r -t 1.099836 -s 0 -d 2 -p cbr -e 210 -c 0 -i 26 -a 0 -x {0.0 3.1 26 ------- null}
+ -t 1.099836 -s 2 -d 3 -p cbr -e 210 -c 0 -i 26 -a 0 -x {0.0 3.1 26 ------- null}
- -t 1.099836 -s 2 -d 3 -p cbr -e 210 -c 0 -i 26 -a 0 -x {0.0 3.1 26 ------- null}
h -t 1.099836 -s 2 -d 3 -p cbr -e 210 -c 0 -i 26 -a 0 -x {0.0 3.1 -1 ------- null}
+ -t 1.1 -s 3 -d 2 -p cbr -e 210 -c 1 -i 27 -a 1 -x {3.0 1.0 0 ------- null}
- -t 1.1 -s 3 -d 2 -p cbr -e 210 -c 1 -i 27 -a 1 -x {3.0 1.0 0 ------- null}
h -t 1.1 -s 3 -d 2 -p cbr -e 210 -c 1 -i 27 -a 1 -x {3.0 1.0 -1 ------- null}
+ -t 1.10125 -s 0 -d 2 -p cbr -e 210 -c 0 -i 28 -a 0 -x {0.0 3.1 27 ------- null}
- -t 1.10125 -s 0 -d 2 -p cbr -e 210 -c 0 -i 28 -a 0 -x {0.0 3.1 27 ------- null}
h -t 1.10125 -s 0 -d 2 -p cbr -e 210 -c 0 -i 28 -a 0 -x {0.0 3.1 -1 ------- null}
r -t 1.103456 -s 2 -d 3 -p cbr -e 210 -c 0 -i 24 -a 0 -x {0.0 3.1 24 ------- null}
r -t 1.103586 -s 0 -d 2 -p cbr -e 210 -c 0 -i 28 -a 0 -x {0.0 3.1 27 ------- null}
+ -t 1.103586 -s 2 -d 3 -p cbr -e 210 -c 0 -i 28 -a 0 -x {0.0 3.1 27 ------- null}
- -t 1.103586 -s 2 -d 3 -p cbr -e 210 -c 0 -i 28 -a 0 -x {0.0 3.1 27 ------- null}
h -t 1.103586 -s 2 -d 3 -p cbr -e 210 -c 0 -i 28 -a 0 -x {0.0 3.1 -1 ------- null}
+ -t 1.10375 -s 3 -d 2 -p cbr -e 210 -c 1 -i 29 -a 1 -x {3.0 1.0 1 ------- null}
- -t 1.10375 -s 3 -d 2 -p cbr -e 210 -c 1 -i 29 -a 1 -x {3.0 1.0 1 ------- null}
h -t 1.10375 -s 3 -d 2 -p cbr -e 210 -c 1 -i 29 -a 1 -x {3.0 1.0 -1 ------- null}
+ -t 1.105 -s 0 -d 2 -p cbr -e 210 -c 0 -i 30 -a 0 -x {0.0 3.1 28 ------- null}
- -t 1.105 -s 0 -d 2 -p cbr -e 210 -c 0 -i 30 -a 0 -x {0.0 3.1 28 ------- null}
h -t 1.105 -s 0 -d 2 -p cbr -e 210 -c 0 -i 30 -a 0 -x {0.0 3.1 -1 ------- null}
r -t 1.107206 -s 2 -d 3 -p cbr -e 210 -c 0 -i 25 -a 0 -x {0.0 3.1 25 ------- null}
r -t 1.107336 -s 0 -d 2 -p cbr -e 210 -c 0 -i 30 -a 0 -x {0.0 3.1 28 ------- null}
+ -t 1.107336 -s 2 -d 3 -p cbr -e 210 -c 0 -i 30 -a 0 -x {0.0 3.1 28 ------- null}
- -t 1.107336 -s 2 -d 3 -p cbr -e 210 -c 0 -i 30 -a 0 -x {0.0 3.1 28 ------- null}
h -t 1.107336 -s 2 -d 3 -p cbr -e 210 -c 0 -i 30 -a 0 -x {0.0 3.1 -1 ------- null}
+ -t 1.1075 -s 3 -d 2 -p cbr -e 210 -c 1 -i 31 -a 1 -x {3.0 1.0 2 ------- null}
- -t 1.1075 -s 3 -d 2 -p cbr -e 210 -c 1 -i 31 -a 1 -x {3.0 1.0 2 ------- null}
h -t 1.1075 -s 3 -d 2 -p cbr -e 210 -c 1 -i 31 -a 1 -x {3.0 1.0 -1 ------- null}
+ -t 1.10875 -s 0 -d 2 -p cbr -e 210 -c 0 -i 32 -a 0 -x {0.0 3.1 29 ------- null}
- -t 1.10875 -s 0 -d 2 -p cbr -e 210 -c 0 -i 32 -a 0 -x {0.0 3.1 29 ------- null}
h -t 1.10875 -s 0 -d 2 -p cbr -e 210 -c 0 -i 32 -a 0 -x {0.0 3.1 -1 ------- null}
r -t 1.110956 -s 2 -d 3 -p cbr -e 210 -c 0 -i 26 -a 0 -x {0.0 3.1 26 ------- null}
r -t 1.111086 -s 0 -d 2 -p cbr -e 210 -c 0 -i 32 -a 0 -x {0.0 3.1 29 ------- null}
+ -t 1.111086 -s 2 -d 3 -p cbr -e 210 -c 0 -i 32 -a 0 -x {0.0 3.1 29 ------- null}
- -t 1.111086 -s 2 -d 3 -p cbr -e 210 -c 0 -i 32 -a 0 -x {0.0 3.1 29 ------- null}
h -t 1.111086 -s 2 -d 3 -p cbr -e 210 -c 0 -i 32 -a 0 -x {0.0 3.1 -1 ------- null}
r -t 1.11112 -s 3 -d 2 -p cbr -e 210 -c 1 -i 27 -a 1 -x {3.0 1.0 0 ------- null}
+ -t 1.11112 -s 2 -d 1 -p cbr -e 210 -c 1 -i 27 -a 1 -x {3.0 1.0 0 ------- null}
- -t 1.11112 -s 2 -d 1 -p cbr -e 210 -c 1 -i 27 -a 1 -x {3.0 1.0 0 ------- null}
h -t 1.11112 -s 2 -d 1 -p cbr -e 210 -c 1 -i 27 -a 1 -x {3.0 1.0 -1 ------- null}
+ -t 1.11125 -s 3 -d 2 -p cbr -e 210 -c 1 -i 33 -a 1 -x {3.0 1.0 3 ------- null}
- -t 1.11125 -s 3 -d 2 -p cbr -e 210 -c 1 -i 33 -a 1 -x {3.0 1.0 3 ------- null}
h -t 1.11125 -s 3 -d 2 -p cbr -e 210 -c 1 -i 33 -a 1 -x {3.0 1.0 -1 ------- null}
+ -t 1.1125 -s 0 -d 2 -p cbr -e 210 -c 0 -i 34 -a 0 -x {0.0 3.1 30 ------- null}
- -t 1.1125 -s 0 -d 2 -p cbr -e 210 -c 0 -i 34 -a 0 -x {0.0 3.1 30 ------- null}
h -t 1.1125 -s 0 -d 2 -p cbr -e 210 -c 0 -i 34 -a 0 -x {0.0 3.1 -1 ------- null}
r -t 1.113456 -s 2 -d 1 -p cbr -e 210 -c 1 -i 27 -a 1 -x {3.0 1.0 0 ------- null}
r -t 1.114706 -s 2 -d 3 -p cbr -e 210 -c 0 -i 28 -a 0 -x {0.0 3.1 27 ------- null}
r -t 1.114836 -s 0 -d 2 -p cbr -e 210 -c 0 -i 34 -a 0 -x {0.0 3.1 30 ------- null}
+ -t 1.114836 -s 2 -d 3 -p cbr -e 210 -c 0 -i 34 -a 0 -x {0.0 3.1 30 ------- null}
- -t 1.114836 -s 2 -d 3 -p cbr -e 210 -c 0 -i 34 -a 0 -x {0.0 3.1 30 ------- null}
h -t 1.114836 -s 2 -d 3 -p cbr -e 210 -c 0 -i 34 -a 0 -x {0.0 3.1 -1 ------- null}
r -t 1.11487 -s 3 -d 2 -p cbr -e 210 -c 1 -i 29 -a 1 -x {3.0 1.0 1 ------- null}
+ -t 1.11487 -s 2 -d 1 -p cbr -e 210 -c 1 -i 29 -a 1 -x {3.0 1.0 1 ------- null}
- -t 1.11487 -s 2 -d 1 -p cbr -e 210 -c 1 -i 29 -a 1 -x {3.0 1.0 1 ------- null}
h -t 1.11487 -s 2 -d 1 -p cbr -e 210 -c 1 -i 29 -a 1 -x {3.0 1.0 -1 ------- null}
+ -t 1.115 -s 3 -d 2 -p cbr -e 210 -c 1 -i 35 -a 1 -x {3.0 1.0 4 ------- null}
- -t 1.115 -s 3 -d 2 -p cbr -e 210 -c 1 -i 35 -a 1 -x {3.0 1.0 4 ------- null}
h -t 1.115 -s 3 -d 2 -p cbr -e 210 -c 1 -i 35 -a 1 -x {3.0 1.0 -1 ------- null}
+ -t 1.11625 -s 0 -d 2 -p cbr -e 210 -c 0 -i 36 -a 0 -x {0.0 3.1 31 ------- null}
- -t 1.11625 -s 0 -d 2 -p cbr -e 210 -c 0 -i 36 -a 0 -x {0.0 3.1 31 ------- null}
h -t 1.11625 -s 0 -d 2 -p cbr -e 210 -c 0 -i 36 -a 0 -x {0.0 3.1 -1 ------- null}
r -t 1.117206 -s 2 -d 1 -p cbr -e 210 -c 1 -i 29 -a 1 -x {3.0 1.0 1 ------- null}
r -t 1.118456 -s 2 -d 3 -p cbr -e 210 -c 0 -i 30 -a 0 -x {0.0 3.1 28 ------- null}
r -t 1.118586 -s 0 -d 2 -p cbr -e 210 -c 0 -i 36 -a 0 -x {0.0 3.1 31 ------- null}
+ -t 1.118586 -s 2 -d 3 -p cbr -e 210 -c 0 -i 36 -a 0 -x {0.0 3.1 31 ------- null}
- -t 1.118586 -s 2 -d 3 -p cbr -e 210 -c 0 -i 36 -a 0 -x {0.0 3.1 31 ------- null}
h -t 1.118586 -s 2 -d 3 -p cbr -e 210 -c 0 -i 36 -a 0 -x {0.0 3.1 -1 ------- null}
r -t 1.11862 -s 3 -d 2 -p cbr -e 210 -c 1 -i 31 -a 1 -x {3.0 1.0 2 ------- null}
+ -t 1.11862 -s 2 -d 1 -p cbr -e 210 -c 1 -i 31 -a 1 -x {3.0 1.0 2 ------- null}
- -t 1.11862 -s 2 -d 1 -p cbr -e 210 -c 1 -i 31 -a 1 -x {3.0 1.0 2 ------- null}
h -t 1.11862 -s 2 -d 1 -p cbr -e 210 -c 1 -i 31 -a 1 -x {3.0 1.0 -1 ------- null}
+ -t 1.11875 -s 3 -d 2 -p cbr -e 210 -c 1 -i 37 -a 1 -x {3.0 1.0 5 ------- null}
- -t 1.11875 -s 3 -d 2 -p cbr -e 210 -c 1 -i 37 -a 1 -x {3.0 1.0 5 ------- null}
h -t 1.11875 -s 3 -d 2 -p cbr -e 210 -c 1 -i 37 -a 1 -x {3.0 1.0 -1 ------- null}
+ -t 1.12 -s 0 -d 2 -p cbr -e 210 -c 0 -i 38 -a 0 -x {0.0 3.1 32 ------- null}
- -t 1.12 -s 0 -d 2 -p cbr -e 210 -c 0 -i 38 -a 0 -x {0.0 3.1 32 ------- null}
h -t 1.12 -s 0 -d 2 -p cbr -e 210 -c 0 -i 38 -a 0 -x {0.0 3.1 -1 ------- null}
r -t 1.120956 -s 2 -d 1 -p cbr -e 210 -c 1 -i 31 -a 1 -x {3.0 1.0 2 ------- null}
r -t 1.122206 -s 2 -d 3 -p cbr -e 210 -c 0 -i 32 -a 0 -x {0.0 3.1 29 ------- null}
r -t 1.122336 -s 0 -d 2 -p cbr -e 210 -c 0 -i 38 -a 0 -x {0.0 3.1 32 ------- null}
+ -t 1.122336 -s 2 -d 3 -p cbr -e 210 -c 0 -i 38 -a 0 -x {0.0 3.1 32 ------- null}
- -t 1.122336 -s 2 -d 3 -p cbr -e 210 -c 0 -i 38 -a 0 -x {0.0 3.1 32 ------- null}
h -t 1.122336 -s 2 -d 3 -p cbr -e 210 -c 0 -i 38 -a 0 -x {0.0 3.1 -1 ------- null}
r -t 1.12237 -s 3 -d 2 -p cbr -e 210 -c 1 -i 33 -a 1 -x {3.0 1.0 3 ------- null}
+ -t 1.12237 -s 2 -d 1 -p cbr -e 210 -c 1 -i 33 -a 1 -x {3.0 1.0 3 ------- null}
- -t 1.12237 -s 2 -d 1 -p cbr -e 210 -c 1 -i 33 -a 1 -x {3.0 1.0 3 ------- null}
h -t 1.12237 -s 2 -d 1 -p cbr -e 210 -c 1 -i 33 -a 1 -x {3.0 1.0 -1 ------- null}
+ -t 1.1225 -s 3 -d 2 -p cbr -e 210 -c 1 -i 39 -a 1 -x {3.0 1.0 6 ------- null}
- -t 1.1225 -s 3 -d 2 -p cbr -e 210 -c 1 -i 39 -a 1 -x {3.0 1.0 6 ------- null}
h -t 1.1225 -s 3 -d 2 -p cbr -e 210 -c 1 -i 39 -a 1 -x {3.0 1.0 -1 ------- null}
+ -t 1.12375 -s 0 -d 2 -p cbr -e 210 -c 0 -i 40 -a 0 -x {0.0 3.1 33 ------- null}
- -t 1.12375 -s 0 -d 2 -p cbr -e 210 -c 0 -i 40 -a 0 -x {0.0 3.1 33 ------- null}
h -t 1.12375 -s 0 -d 2 -p cbr -e 210 -c 0 -i 40 -a 0 -x {0.0 3.1 -1 ------- null}
r -t 1.124706 -s 2 -d 1 -p cbr -e 210 -c 1 -i 33 -a 1 -x {3.0 1.0 3 ------- null}
r -t 1.125956 -s 2 -d 3 -p cbr -e 210 -c 0 -i 34 -a 0 -x {0.0 3.1 30 ------- null}
r -t 1.126086 -s 0 -d 2 -p cbr -e 210 -c 0 -i 40 -a 0 -x {0.0 3.1 33 ------- null}
+ -t 1.126086 -s 2 -d 3 -p cbr -e 210 -c 0 -i 40 -a 0 -x {0.0 3.1 33 ------- null}
- -t 1.126086 -s 2 -d 3 -p cbr -e 210 -c 0 -i 40 -a 0 -x {0.0 3.1 33 ------- null}
h -t 1.126086 -s 2 -d 3 -p cbr -e 210 -c 0 -i 40 -a 0 -x {0.0 3.1 -1 ------- null}
r -t 1.12612 -s 3 -d 2 -p cbr -e 210 -c 1 -i 35 -a 1 -x {3.0 1.0 4 ------- null}
+ -t 1.12612 -s 2 -d 1 -p cbr -e 210 -c 1 -i 35 -a 1 -x {3.0 1.0 4 ------- null}
- -t 1.12612 -s 2 -d 1 -p cbr -e 210 -c 1 -i 35 -a 1 -x {3.0 1.0 4 ------- null}
h -t 1.12612 -s 2 -d 1 -p cbr -e 210 -c 1 -i 35 -a 1 -x {3.0 1.0 -1 ------- null}
+ -t 1.12625 -s 3 -d 2 -p cbr -e 210 -c 1 -i 41 -a 1 -x {3.0 1.0 7 ------- null}
- -t 1.12625 -s 3 -d 2 -p cbr -e 210 -c 1 -i 41 -a 1 -x {3.0 1.0 7 ------- null}
h -t 1.12625 -s 3 -d 2 -p cbr -e 210 -c 1 -i 41 -a 1 -x {3.0 1.0 -1 ------- null}
+ -t 1.1275 -s 0 -d 2 -p cbr -e 210 -c 0 -i 42 -a 0 -x {0.0 3.1 34 ------- null}
- -t 1.1275 -s 0 -d 2 -p cbr -e 210 -c 0 -i 42 -a 0 -x {0.0 3.1 34 ------- null}
h -t 1.1275 -s 0 -d 2 -p cbr -e 210 -c 0 -i 42 -a 0 -x {0.0 3.1 -1 ------- null}
r -t 1.128456 -s 2 -d 1 -p cbr -e 210 -c 1 -i 35 -a 1 -x {3.0 1.0 4 ------- null}
r -t 1.129706 -s 2 -d 3 -p cbr -e 210 -c 0 -i 36 -a 0 -x {0.0 3.1 31 ------- null}
r -t 1.129836 -s 0 -d 2 -p cbr -e 210 -c 0 -i 42 -a 0 -x {0.0 3.1 34 ------- null}
+ -t 1.129836 -s 2 -d 3 -p cbr -e 210 -c 0 -i 42 -a 0 -x {0.0 3.1 34 ------- null}
- -t 1.129836 -s 2 -d 3 -p cbr -e 210 -c 0 -i 42 -a 0 -x {0.0 3.1 34 ------- null}
h -t 1.129836 -s 2 -d 3 -p cbr -e 210 -c 0 -i 42 -a 0 -x {0.0 3.1 -1 ------- null}
r -t 1.12987 -s 3 -d 2 -p cbr -e 210 -c 1 -i 37 -a 1 -x {3.0 1.0 5 ------- null}
+ -t 1.12987 -s 2 -d 1 -p cbr -e 210 -c 1 -i 37 -a 1 -x {3.0 1.0 5 ------- null}
- -t 1.12987 -s 2 -d 1 -p cbr -e 210 -c 1 -i 37 -a 1 -x {3.0 1.0 5 ------- null}
h -t 1.12987 -s 2 -d 1 -p cbr -e 210 -c 1 -i 37 -a 1 -x {3.0 1.0 -1 ------- null}
+ -t 1.13 -s 3 -d 2 -p cbr -e 210 -c 1 -i 43 -a 1 -x {3.0 1.0 8 ------- null}
- -t 1.13 -s 3 -d 2 -p cbr -e 210 -c 1 -i 43 -a 1 -x {3.0 1.0 8 ------- null}
h -t 1.13 -s 3 -d 2 -p cbr -e 210 -c 1 -i 43 -a 1 -x {3.0 1.0 -1 ------- null}
+ -t 1.13125 -s 0 -d 2 -p cbr -e 210 -c 0 -i 44 -a 0 -x {0.0 3.1 35 ------- null}
- -t 1.13125 -s 0 -d 2 -p cbr -e 210 -c 0 -i 44 -a 0 -x {0.0 3.1 35 ------- null}
h -t 1.13125 -s 0 -d 2 -p cbr -e 210 -c 0 -i 44 -a 0 -x {0.0 3.1 -1 ------- null}
r -t 1.132206 -s 2 -d 1 -p cbr -e 210 -c 1 -i 37 -a 1 -x {3.0 1.0 5 ------- null}
r -t 1.133456 -s 2 -d 3 -p cbr -e 210 -c 0 -i 38 -a 0 -x {0.0 3.1 32 ------- null}
r -t 1.133586 -s 0 -d 2 -p cbr -e 210 -c 0 -i 44 -a 0 -x {0.0 3.1 35 ------- null}
+ -t 1.133586 -s 2 -d 3 -p cbr -e 210 -c 0 -i 44 -a 0 -x {0.0 3.1 35 ------- null}
- -t 1.133586 -s 2 -d 3 -p cbr -e 210 -c 0 -i 44 -a 0 -x {0.0 3.1 35 ------- null}
h -t 1.133586 -s 2 -d 3 -p cbr -e 210 -c 0 -i 44 -a 0 -x {0.0 3.1 -1 ------- null}
r -t 1.13362 -s 3 -d 2 -p cbr -e 210 -c 1 -i 39 -a 1 -x {3.0 1.0 6 ------- null}
+ -t 1.13362 -s 2 -d 1 -p cbr -e 210 -c 1 -i 39 -a 1 -x {3.0 1.0 6 ------- null}
- -t 1.13362 -s 2 -d 1 -p cbr -e 210 -c 1 -i 39 -a 1 -x {3.0 1.0 6 ------- null}
h -t 1.13362 -s 2 -d 1 -p cbr -e 210 -c 1 -i 39 -a 1 -x {3.0 1.0 -1 ------- null}
+ -t 1.13375 -s 3 -d 2 -p cbr -e 210 -c 1 -i 45 -a 1 -x {3.0 1.0 9 ------- null}
- -t 1.13375 -s 3 -d 2 -p cbr -e 210 -c 1 -i 45 -a 1 -x {3.0 1.0 9 ------- null}
h -t 1.13375 -s 3 -d 2 -p cbr -e 210 -c 1 -i 45 -a 1 -x {3.0 1.0 -1 ------- null}
+ -t 1.135 -s 0 -d 2 -p cbr -e 210 -c 0 -i 46 -a 0 -x {0.0 3.1 36 ------- null}
- -t 1.135 -s 0 -d 2 -p cbr -e 210 -c 0 -i 46 -a 0 -x {0.0 3.1 36 ------- null}
h -t 1.135 -s 0 -d 2 -p cbr -e 210 -c 0 -i 46 -a 0 -x {0.0 3.1 -1 ------- null}
r -t 1.135956 -s 2 -d 1 -p cbr -e 210 -c 1 -i 39 -a 1 -x {3.0 1.0 6 ------- null}
r -t 1.137206 -s 2 -d 3 -p cbr -e 210 -c 0 -i 40 -a 0 -x {0.0 3.1 33 ------- null}
r -t 1.137336 -s 0 -d 2 -p cbr -e 210 -c 0 -i 46 -a 0 -x {0.0 3.1 36 ------- null}
+ -t 1.137336 -s 2 -d 3 -p cbr -e 210 -c 0 -i 46 -a 0 -x {0.0 3.1 36 ------- null}
- -t 1.137336 -s 2 -d 3 -p cbr -e 210 -c 0 -i 46 -a 0 -x {0.0 3.1 36 ------- null}