+ 1 0 2 cbr 210 ------- 0 0.0 3.1 0 0
- 1 0 2 cbr 210 ------- 0 0.0 3.1 0 0
r 1.002336 0 2 cbr 210 ------- 0 0.0 3.1 0 0
+ 1.002336 2 3 cbr 210 ------- 0 0.0 3.1 0 0
- 1.002336 2 3 cbr 210 ------- 0 0.0 3.1 0 0
+ 1.00375 0 2 cbr 210 ------- 0 0.0 3.1 1 1
- 1.00375 0 2 cbr 210 ------- 0 0.0 3.1 1 1
r 1.006086 0 2 cbr 210 ------- 0 0.0 3.1 1 1
+ 1.006086 2 3 cbr 210 ------- 0 0.0 3.1 1 1
- 1.006086 2 3 cbr 210 ------- 0 0.0 3.1 1 1
+ 1.0075 0 2 cbr 210 ------- 0 0.0 3.1 2 2
- 1.0075 0 2 cbr 210 ------- 0 0.0 3.1 2 2
r 1.009836 0 2 cbr 210 ------- 0 0.0 3.1 2 2
+ 1.009836 2 3 cbr 210 ------- 0 0.0 3.1 2 2
- 1.009836 2 3 cbr 210 ------- 0 0.0 3.1 2 2
+ 1.01125 0 2 cbr 210 ------- 0 0.0 3.1 3 3
- 1.01125 0 2 cbr 210 ------- 0 0.0 3.1 3 3
r 1.013456 2 3 cbr 210 ------- 0 0.0 3.1 0 0
r 1.013586 0 2 cbr 210 ------- 0 0.0 3.1 3 3
+ 1.013586 2 3 cbr 210 ------- 0 0.0 3.1 3 3
- 1.013586 2 3 cbr 210 ------- 0 0.0 3.1 3 3
+ 1.015 0 2 cbr 210 ------- 0 0.0 3.1 4 4
- 1.015 0 2 cbr 210 ------- 0 0.0 3.1 4 4
r 1.017206 2 3 cbr 210 ------- 0 0.0 3.1 1 1
r 1.017336 0 2 cbr 210 ------- 0 0.0 3.1 4 4
+ 1.017336 2 3 cbr 210 ------- 0 0.0 3.1 4 4
- 1.017336 2 3 cbr 210 ------- 0 0.0 3.1 4 4
+ 1.01875 0 2 cbr 210 ------- 0 0.0 3.1 5 5
- 1.01875 0 2 cbr 210 ------- 0 0.0 3.1 5 5
r 1.020956 2 3 cbr 210 ------- 0 0.0 3.1 2 2
r 1.021086 0 2 cbr 210 ------- 0 0.0 3.1 5 5
+ 1.021086 2 3 cbr 210 ------- 0 0.0 3.1 5 5
- 1.021086 2 3 cbr 210 ------- 0 0.0 3.1 5 5
+ 1.0225 0 2 cbr 210 ------- 0 0.0 3.1 6 6
- 1.0225 0 2 cbr 210 ------- 0 0.0 3.1 6 6
r 1.024706 2 3 cbr 210 ------- 0 0.0 3.1 3 3
r 1.024836 0 2 cbr 210 ------- 0 0.0 3.1 6 6
+ 1.024836 2 3 cbr 210 ------- 0 0.0 3.1 6 6
- 1.024836 2 3 cbr 210 ------- 0 0.0 3.1 6 6
+ 1.02625 0 2 cbr 210 ------- 0 0.0 3.1 7 7
- 1.02625 0 2 cbr 210 ------- 0 0.0 3.1 7 7
r 1.028456 2 3 cbr 210 ------- 0 0.0 3.1 4 4
r 1.028586 0 2 cbr 210 ------- 0 0.0 3.1 7 7
+ 1.028586 2 3 cbr 210 ------- 0 0.0 3.1 7 7
- 1.028586 2 3 cbr 210 ------- 0 0.0 3.1 7 7
+ 1.03 0 2 cbr 210 ------- 0 0.0 3.1 8 8
- 1.03 0 2 cbr 210 ------- 0 0.0 3.1 8 8
r 1.032206 2 3 cbr 210 ------- 0 0.0 3.1 5 5
r 1.032336 0 2 cbr 210 ------- 0 0.0 3.1 8 8
+ 1.032336 2 3 cbr 210 ------- 0 0.0 3.1 8 8
- 1.032336 2 3 cbr 210 ------- 0 0.0 3.1 8 8
+ 1.03375 0 2 cbr 210 ------- 0 0.0 3.1 9 9
- 1.03375 0 2 cbr 210 ------- 0 0.0 3.1 9 9
r 1.035956 2 3 cbr 210 ------- 0 0.0 3.1 6 6
r 1.036086 0 2 cbr 210 ------- 0 0.0 3.1 9 9
+ 1.036086 2 3 cbr 210 ------- 0 0.0 3.1 9 9
- 1.036086 2 3 cbr 210 ------- 0 0.0 3.1 9 9
+ 1.0375 0 2 cbr 210 ------- 0 0.0 3.1 10 10
- 1.0375 0 2 cbr 210 ------- 0 0.0 3.1 10 10
r 1.039706 2 3 cbr 210 ------- 0 0.0 3.1 7 7
r 1.039836 0 2 cbr 210 ------- 0 0.0 3.1 10 10
+ 1.039836 2 3 cbr 210 ------- 0 0.0 3.1 10 10
- 1.039836 2 3 cbr 210 ------- 0 0.0 3.1 10 10
+ 1.04125 0 2 cbr 210 ------- 0 0.0 3.1 11 11
- 1.04125 0 2 cbr 210 ------- 0 0.0 3.1 11 11
r 1.043456 2 3 cbr 210 ------- 0 0.0 3.1 8 8
r 1.043586 0 2 cbr 210 ------- 0 0.0 3.1 11 11
+ 1.043586 2 3 cbr 210 ------- 0 0.0 3.1 11 11
- 1.043586 2 3 cbr 210 ------- 0 0.0 3.1 11 11
+ 1.045 0 2 cbr 210 ------- 0 0.0 3.1 12 12
- 1.045 0 2 cbr 210 ------- 0 0.0 3.1 12 12
r 1.047206 2 3 cbr 210 ------- 0 0.0 3.1 9 9
r 1.047336 0 2 cbr 210 ------- 0 0.0 3.1 12 12
+ 1.047336 2 3 cbr 210 ------- 0 0.0 3.1 12 12
- 1.047336 2 3 cbr 210 ------- 0 0.0 3.1 12 12
+ 1.04875 0 2 cbr 210 ------- 0 0.0 3.1 13 13
- 1.04875 0 2 cbr 210 ------- 0 0.0 3.1 13 13
v 1.05 eval {set sim_annotation {Send Packet1}}
r 1.050956 2 3 cbr 210 ------- 0 0.0 3.1 10 10
r 1.051086 0 2 cbr 210 ------- 0 0.0 3.1 13 13
+ 1.051086 2 3 cbr 210 ------- 0 0.0 3.1 13 13
- 1.051086 2 3 cbr 210 ------- 0 0.0 3.1 13 13
+ 1.0525 0 2 cbr 210 ------- 0 0.0 3.1 14 14
- 1.0525 0 2 cbr 210 ------- 0 0.0 3.1 14 14
r 1.054706 2 3 cbr 210 ------- 0 0.0 3.1 11 11
r 1.054836 0 2 cbr 210 ------- 0 0.0 3.1 14 14
+ 1.054836 2 3 cbr 210 ------- 0 0.0 3.1 14 14
- 1.054836 2 3 cbr 210 ------- 0 0.0 3.1 14 14
+ 1.05625 0 2 cbr 210 ------- 0 0.0 3.1 15 15
- 1.05625 0 2 cbr 210 ------- 0 0.0 3.1 15 15
r 1.058456 2 3 cbr 210 ------- 0 0.0 3.1 12 12
r 1.058586 0 2 cbr 210 ------- 0 0.0 3.1 15 15
+ 1.058586 2 3 cbr 210 ------- 0 0.0 3.1 15 15
- 1.058586 2 3 cbr 210 ------- 0 0.0 3.1 15 15
+ 1.06 0 2 cbr 210 ------- 0 0.0 3.1 16 16
- 1.06 0 2 cbr 210 ------- 0 0.0 3.1 16 16
r 1.062206 2 3 cbr 210 ------- 0 0.0 3.1 13 13
r 1.062336 0 2 cbr 210 ------- 0 0.0 3.1 16 16
+ 1.062336 2 3 cbr 210 ------- 0 0.0 3.1 16 16
- 1.062336 2 3 cbr 210 ------- 0 0.0 3.1 16 16
+ 1.06375 0 2 cbr 210 ------- 0 0.0 3.1 17 17
- 1.06375 0 2 cbr 210 ------- 0 0.0 3.1 17 17
r 1.065956 2 3 cbr 210 ------- 0 0.0 3.1 14 14
r 1.066086 0 2 cbr 210 ------- 0 0.0 3.1 17 17
+ 1.066086 2 3 cbr 210 ------- 0 0.0 3.1 17 17
- 1.066086 2 3 cbr 210 ------- 0 0.0 3.1 17 17
+ 1.0675 0 2 cbr 210 ------- 0 0.0 3.1 18 18
- 1.0675 0 2 cbr 210 ------- 0 0.0 3.1 18 18
r 1.069706 2 3 cbr 210 ------- 0 0.0 3.1 15 15
r 1.069836 0 2 cbr 210 ------- 0 0.0 3.1 18 18
+ 1.069836 2 3 cbr 210 ------- 0 0.0 3.1 18 18
- 1.069836 2 3 cbr 210 ------- 0 0.0 3.1 18 18
+ 1.07125 0 2 cbr 210 ------- 0 0.0 3.1 19 19
- 1.07125 0 2 cbr 210 ------- 0 0.0 3.1 19 19
r 1.073456 2 3 cbr 210 ------- 0 0.0 3.1 16 16
r 1.073586 0 2 cbr 210 ------- 0 0.0 3.1 19 19
+ 1.073586 2 3 cbr 210 ------- 0 0.0 3.1 19 19
- 1.073586 2 3 cbr 210 ------- 0 0.0 3.1 19 19
+ 1.075 0 2 cbr 210 ------- 0 0.0 3.1 20 20
- 1.075 0 2 cbr 210 ------- 0 0.0 3.1 20 20
r 1.077206 2 3 cbr 210 ------- 0 0.0 3.1 17 17
r 1.077336 0 2 cbr 210 ------- 0 0.0 3.1 20 20
+ 1.077336 2 3 cbr 210 ------- 0 0.0 3.1 20 20
- 1.077336 2 3 cbr 210 ------- 0 0.0 3.1 20 20
+ 1.07875 0 2 cbr 210 ------- 0 0.0 3.1 21 21
- 1.07875 0 2 cbr 210 ------- 0 0.0 3.1 21 21
r 1.080956 2 3 cbr 210 ------- 0 0.0 3.1 18 18
r 1.081086 0 2 cbr 210 ------- 0 0.0 3.1 21 21
+ 1.081086 2 3 cbr 210 ------- 0 0.0 3.1 21 21
- 1.081086 2 3 cbr 210 ------- 0 0.0 3.1 21 21
+ 1.0825 0 2 cbr 210 ------- 0 0.0 3.1 22 22
- 1.0825 0 2 cbr 210 ------- 0 0.0 3.1 22 22
r 1.084706 2 3 cbr 210 ------- 0 0.0 3.1 19 19
r 1.084836 0 2 cbr 210 ------- 0 0.0 3.1 22 22
+ 1.084836 2 3 cbr 210 ------- 0 0.0 3.1 22 22
- 1.084836 2 3 cbr 210 ------- 0 0.0 3.1 22 22
+ 1.08625 0 2 cbr 210 ------- 0 0.0 3.1 23 23
- 1.08625 0 2 cbr 210 ------- 0 0.0 3.1 23 23
r 1.088456 2 3 cbr 210 ------- 0 0.0 3.1 20 20
r 1.088586 0 2 cbr 210 ------- 0 0.0 3.1 23 23
+ 1.088586 2 3 cbr 210 ------- 0 0.0 3.1 23 23
- 1.088586 2 3 cbr 210 ------- 0 0.0 3.1 23 23
+ 1.09 0 2 cbr 210 ------- 0 0.0 3.1 24 24
- 1.09 0 2 cbr 210 ------- 0 0.0 3.1 24 24
r 1.092206 2 3 cbr 210 ------- 0 0.0 3.1 21 21
r 1.092336 0 2 cbr 210 ------- 0 0.0 3.1 24 24
+ 1.092336 2 3 cbr 210 ------- 0 0.0 3.1 24 24
- 1.092336 2 3 cbr 210 ------- 0 0.0 3.1 24 24
+ 1.09375 0 2 cbr 210 ------- 0 0.0 3.1 25 25
- 1.09375 0 2 cbr 210 ------- 0 0.0 3.1 25 25
r 1.095956 2 3 cbr 210 ------- 0 0.0 3.1 22 22
r 1.096086 0 2 cbr 210 ------- 0 0.0 3.1 25 25
+ 1.096086 2 3 cbr 210 ------- 0 0.0 3.1 25 25
- 1.096086 2 3 cbr 210 ------- 0 0.0 3.1 25 25
+ 1.0975 0 2 cbr 210 ------- 0 0.0 3.1 26 26
- 1.0975 0 2 cbr 210 ------- 0 0.0 3.1 26 26
r 1.099706 2 3 cbr 210 ------- 0 0.0 3.1 23 23
r 1.099836 0 2 cbr 210 ------- 0 0.0 3.1 26 26
+ 1.099836 2 3 cbr 210 ------- 0 0.0 3.1 26 26
- 1.099836 2 3 cbr 210 ------- 0 0.0 3.1 26 26
+ 1.1 3 2 cbr 210 ------- 1 3.0 1.0 0 27
- 1.1 3 2 cbr 210 ------- 1 3.0 1.0 0 27
+ 1.10125 0 2 cbr 210 ------- 0 0.0 3.1 27 28
- 1.10125 0 2 cbr 210 ------- 0 0.0 3.1 27 28
r 1.103456 2 3 cbr 210 ------- 0 0.0 3.1 24 24
r 1.103586 0 2 cbr 210 ------- 0 0.0 3.1 27 28
+ 1.103586 2 3 cbr 210 ------- 0 0.0 3.1 27 28
- 1.103586 2 3 cbr 210 ------- 0 0.0 3.1 27 28
+ 1.10375 3 2 cbr 210 ------- 1 3.0 1.0 1 29
- 1.10375 3 2 cbr 210 ------- 1 3.0 1.0 1 29
+ 1.105 0 2 cbr 210 ------- 0 0.0 3.1 28 30
- 1.105 0 2 cbr 210 ------- 0 0.0 3.1 28 30
r 1.107206 2 3 cbr 210 ------- 0 0.0 3.1 25 25
r 1.107336 0 2 cbr 210 ------- 0 0.0 3.1 28 30
+ 1.107336 2 3 cbr 210 ------- 0 0.0 3.1 28 30
- 1.107336 2 3 cbr 210 ------- 0 0.0 3.1 28 30
+ 1.1075 3 2 cbr 210 ------- 1 3.0 1.0 2 31
- 1.1075 3 2 cbr 210 ------- 1 3.0 1.0 2 31
+ 1.10875 0 2 cbr 210 ------- 0 0.0 3.1 29 32
- 1.10875 0 2 cbr 210 ------- 0 0.0 3.1 29 32
r 1.110956 2 3 cbr 210 ------- 0 0.0 3.1 26 26
r 1.111086 0 2 cbr 210 ------- 0 0.0 3.1 29 32
+ 1.111086 2 3 cbr 210 ------- 0 0.0 3.1 29 32
- 1.111086 2 3 cbr 210 ------- 0 0.0 3.1 29 32
r 1.11112 3 2 cbr 210 ------- 1 3.0 1.0 0 27
+ 1.11112 2 1 cbr 210 ------- 1 3.0 1.0 0 27
- 1.11112 2 1 cbr 210 ------- 1 3.0 1.0 0 27
+ 1.11125 3 2 cbr 210 ------- 1 3.0 1.0 3 33
- 1.11125 3 2 cbr 210 ------- 1 3.0 1.0 3 33
+ 1.1125 0 2 cbr 210 ------- 0 0.0 3.1 30 34
- 1.1125 0 2 cbr 210 ------- 0 0.0 3.1 30 34
r 1.113456 2 1 cbr 210 ------- 1 3.0 1.0 0 27
r 1.114706 2 3 cbr 210 ------- 0 0.0 3.1 27 28
r 1.114836 0 2 cbr 210 ------- 0 0.0 3.1 30 34
+ 1.114836 2 3 cbr 210 ------- 0 0.0 3.1 30 34
- 1.114836 2 3 cbr 210 ------- 0 0.0 3.1 30 34
r 1.11487 3 2 cbr 210 ------- 1 3.0 1.0 1 29
+ 1.11487 2 1 cbr 210 ------- 1 3.0 1.0 1 29
- 1.11487 2 1 cbr 210 ------- 1 3.0 1.0 1 29
+ 1.115 3 2 cbr 210 ------- 1 3.0 1.0 4 35
- 1.115 3 2 cbr 210 ------- 1 3.0 1.0 4 35
+ 1.11625 0 2 cbr 210 ------- 0 0.0 3.1 31 36
- 1.11625 0 2 cbr 210 ------- 0 0.0 3.1 31 36
r 1.117206 2 1 cbr 210 ------- 1 3.0 1.0 1 29
r 1.118456 2 3 cbr 210 ------- 0 0.0 3.1 28 30
r 1.118586 0 2 cbr 210 ------- 0 0.0 3.1 31 36
+ 1.118586 2 3 cbr 210 ------- 0 0.0 3.1 31 36
- 1.118586 2 3 cbr 210 ------- 0 0.0 3.1 31 36
r 1.11862 3 2 cbr 210 ------- 1 3.0 1.0 2 31
+ 1.11862 2 1 cbr 210 ------- 1 3.0 1.0 2 31
- 1.11862 2 1 cbr 210 ------- 1 3.0 1.0 2 31
+ 1.11875 3 2 cbr 210 ------- 1 3.0 1.0 5 37
- 1.11875 3 2 cbr 210 ------- 1 3.0 1.0 5 37
+ 1.12 0 2 cbr 210 ------- 0 0.0 3.1 32 38
- 1.12 0 2 cbr 210 ------- 0 0.0 3.1 32 38
r 1.120956 2 1 cbr 210 ------- 1 3.0 1.0 2 31
r 1.122206 2 3 cbr 210 ------- 0 0.0 3.1 29 32
r 1.122336 0 2 cbr 210 ------- 0 0.0 3.1 32 38
+ 1.122336 2 3 cbr 210 ------- 0 0.0 3.1 32 38
- 1.122336 2 3 cbr 210 ------- 0 0.0 3.1 32 38
r 1.12237 3 2 cbr 210 ------- 1 3.0 1.0 3 33
+ 1.12237 2 1 cbr 210 ------- 1 3.0 1.0 3 33
- 1.12237 2 1 cbr 210 ------- 1 3.0 1.0 3 33
+ 1.1225 3 2 cbr 210 ------- 1 3.0 1.0 6 39
- 1.1225 3 2 cbr 210 ------- 1 3.0 1.0 6 39
+ 1.12375 0 2 cbr 210 ------- 0 0.0 3.1 33 40
- 1.12375 0 2 cbr 210 ------- 0 0.0 3.1 33 40
r 1.124706 2 1 cbr 210 ------- 1 3.0 1.0 3 33
r 1.125956 2 3 cbr 210 ------- 0 0.0 3.1 30 34
r 1.126086 0 2 cbr 210 ------- 0 0.0 3.1 33 40
+ 1.126086 2 3 cbr 210 ------- 0 0.0 3.1 33 40
- 1.126086 2 3 cbr 210 ------- 0 0.0 3.1 33 40
r 1.12612 3 2 cbr 210 ------- 1 3.0 1.0 4 35
+ 1.12612 2 1 cbr 210 ------- 1 3.0 1.0 4 35
- 1.12612 2 1 cbr 210 ------- 1 3.0 1.0 4 35
+ 1.12625 3 2 cbr 210 ------- 1 3.0 1.0 7 41
- 1.12625 3 2 cbr 210 ------- 1 3.0 1.0 7 41
+ 1.1275 0 2 cbr 210 ------- 0 0.0 3.1 34 42
- 1.1275 0 2 cbr 210 ------- 0 0.0 3.1 34 42
r 1.128456 2 1 cbr 210 ------- 1 3.0 1.0 4 35
r 1.129706 2 3 cbr 210 ------- 0 0.0 3.1 31 36
r 1.129836 0 2 cbr 210 ------- 0 0.0 3.1 34 42
+ 1.129836 2 3 cbr 210 ------- 0 0.0 3.1 34 42
- 1.129836 2 3 cbr 210 ------- 0 0.0 3.1 34 42
r 1.12987 3 2 cbr 210 ------- 1 3.0 1.0 5 37
+ 1.12987 2 1 cbr 210 ------- 1 3.0 1.0 5 37
- 1.12987 2 1 cbr 210 ------- 1 3.0 1.0 5 37
+ 1.13 3 2 cbr 210 ------- 1 3.0 1.0 8 43
- 1.13 3 2 cbr 210 ------- 1 3.0 1.0 8 43
+ 1.13125 0 2 cbr 210 ------- 0 0.0 3.1 35 44
- 1.13125 0 2 cbr 210 ------- 0 0.0 3.1 35 44
r 1.132206 2 1 cbr 210 ------- 1 3.0 1.0 5 37
r 1.133456 2 3 cbr 210 ------- 0 0.0 3.1 32 38
r 1.133586 0 2 cbr 210 ------- 0 0.0 3.1 35 44
+ 1.133586 2 3 cbr 210 ------- 0 0.0 3.1 35 44
- 1.133586 2 3 cbr 210 ------- 0 0.0 3.1 35 44
r 1.13362 3 2 cbr 210 ------- 1 3.0 1.0 6 39
+ 1.13362 2 1 cbr 210 ------- 1 3.0 1.0 6 39
- 1.13362 2 1 cbr 210 ------- 1 3.0 1.0 6 39
+ 1.13375 3 2 cbr 210 ------- 1 3.0 1.0 9 45
- 1.13375 3 2 cbr 210 ------- 1 3.0 1.0 9 45
+ 1.135 0 2 cbr 210 ------- 0 0.0 3.1 36 46
- 1.135 0 2 cbr 210 ------- 0 0.0 3.1 36 46
r 1.135956 2 1 cbr 210 ------- 1 3.0 1.0 6 39
r 1.137206 2 3 cbr 210 ------- 0 0.0 3.1 33 40
r 1.137336 0 2 cbr 210 ------- 0 0.0 3.1 36 46
+ 1.137336 2 3 cbr 210 ------- 0 0.0 3.1 36 46
- 1.137336 2 3 cbr 210 ------- 0 0.0 3.1 36 46
r 1.13737 3 2 cbr 210 ------- 1 3.0 1.0 7 41
+ 1.13737 2 1 cbr 210 ------- 1 3.0 1.0 7 41
- 1.13737 2 1 cbr 210 ------- 1 3.0 1.0 7 41
+ 1.1375 3 2 cbr 210 ------- 1 3.0 1.0 10 47
- 1.1375 3 2 cbr 210 ------- 1 3.0 1.0 10 47
+ 1.13875 0 2 cbr 210 ------- 0 0.0 3.1 37 48
- 1.13875 0 2 cbr 210 ------- 0 0.0 3.1 37 48
r 1.139706 2 1 cbr 210 ------- 1 3.0 1.0 7 41
r 1.140956 2 3 cbr 210 ------- 0 0.0 3.1 34 42
r 1.141086 0 2 cbr 210 ------- 0 0.0 3.1 37 48
+ 1.141086 2 3 cbr 210 ------- 0 0.0 3.1 37 48
- 1.141086 2 3 cbr 210 ------- 0 0.0 3.1 37 48
r 1.14112 3 2 cbr 210 ------- 1 3.0 1.0 8 43
+ 1.14112 2 1 cbr 210 ------- 1 3.0 1.0 8 43
- 1.14112 2 1 cbr 210 ------- 1 3.0 1.0 8 43
+ 1.14125 3 2 cbr 210 ------- 1 3.0 1.0 11 49
- 1.14125 3 2 cbr 210 ------- 1 3.0 1.0 11 49
+ 1.1425 0 2 cbr 210 ------- 0 0.0 3.1 38 50
- 1.1425 0 2 cbr 210 ------- 0 0.0 3.1 38 50
r 1.143456 2 1 cbr 210 ------- 1 3.0 1.0 8 43
r 1.144706 2 3 cbr 210 ------- 0 0.0 3.1 35 44
r 1.144836 0 2 cbr 210 ------- 0 0.0 3.1 38 50
+ 1.144836 2 3 cbr 210 ------- 0 0.0 3.1 38 50
- 1.144836 2 3 cbr 210 ------- 0 0.0 3.1 38 50
r 1.14487 3 2 cbr 210 ------- 1 3.0 1.0 9 45
+ 1.14487 2 1 cbr 210 ------- 1 3.0 1.0 9 45
- 1.14487 2 1 cbr 210 ------- 1 3.0 1.0 9 45
+ 1.145 3 2 cbr 210 ------- 1 3.0 1.0 12 51
- 1.145 3 2 cbr 210 ------- 1 3.0 1.0 12 51
+ 1.14625 0 2 cbr 210 ------- 0 0.0 3.1 39 52
- 1.14625 0 2 cbr 210 ------- 0 0.0 3.1 39 52
r 1.147206 2 1 cbr 210 ------- 1 3.0 1.0 9 45
r 1.148456 2 3 cbr 210 ------- 0 0.0 3.1 36 46
r 1.148586 0 2 cbr 210 ------- 0 0.0 3.1 39 52
+ 1.148586 2 3 cbr 210 ------- 0 0.0 3.1 39 52
- 1.148586 2 3 cbr 210 ------- 0 0.0 3.1 39 52
r 1.14862 3 2 cbr 210 ------- 1 3.0 1.0 10 47
+ 1.14862 2 1 cbr 210 ------- 1 3.0 1.0 10 47
- 1.14862 2 1 cbr 210 ------- 1 3.0 1.0 10 47
+ 1.14875 3 2 cbr 210 ------- 1 3.0 1.0 13 53
- 1.14875 3 2 cbr 210 ------- 1 3.0 1.0 13 53
+ 1.15 0 2 cbr 210 ------- 0 0.0 3.1 40 54
- 1.15 0 2 cbr 210 ------- 0 0.0 3.1 40 54
v 1.1499999999999999 eval {set sim_annotation {Send Packet2}}
r 1.150956 2 1 cbr 210 ------- 1 3.0 1.0 10 47
r 1.152206 2 3 cbr 210 ------- 0 0.0 3.1 37 48
r 1.152336 0 2 cbr 210 ------- 0 0.0 3.1 40 54
+ 1.152336 2 3 cbr 210 ------- 0 0.0 3.1 40 54
- 1.152336 2 3 cbr 210 ------- 0 0.0 3.1 40 54
r 1.15237 3 2 cbr 210 ------- 1 3.0 1.0 11 49
+ 1.15237 2 1 cbr 210 ------- 1 3.0 1.0 11 49
- 1.15237 2 1 cbr 210 ------- 1 3.0 1.0 11 49
+ 1.1525 3 2 cbr 210 ------- 1 3.0 1.0 14 55
- 1.1525 3 2 cbr 210 ------- 1 3.0 1.0 14 55
+ 1.15375 0 2 cbr 210 ------- 0 0.0 3.1 41 56
- 1.15375 0 2 cbr 210 ------- 0 0.0 3.1 41 56
r 1.154706 2 1 cbr 210 ------- 1 3.0 1.0 11 49
r 1.155956 2 3 cbr 210 ------- 0 0.0 3.1 38 50
r 1.156086 0 2 cbr 210 ------- 0 0.0 3.1 41 56
+ 1.156086 2 3 cbr 210 ------- 0 0.0 3.1 41 56
- 1.156086 2 3 cbr 210 ------- 0 0.0 3.1 41 56
r 1.15612 3 2 cbr 210 ------- 1 3.0 1.0 12 51
+ 1.15612 2 1 cbr 210 ------- 1 3.0 1.0 12 51
- 1.15612 2 1 cbr 210 ------- 1 3.0 1.0 12 51
+ 1.15625 3 2 cbr 210 ------- 1 3.0 1.0 15 57
- 1.15625 3 2 cbr 210 ------- 1 3.0 1.0 15 57
+ 1.1575 0 2 cbr 210 ------- 0 0.0 3.1 42 58
- 1.1575 0 2 cbr 210 ------- 0 0.0 3.1 42 58
r 1.158456 2 1 cbr 210 ------- 1 3.0 1.0 12 51
r 1.159706 2 3 cbr 210 ------- 0 0.0 3.1 39 52
r 1.159836 0 2 cbr 210 ------- 0 0.0 3.1 42 58
+ 1.159836 2 3 cbr 210 ------- 0 0.0 3.1 42 58
- 1.159836 2 3 cbr 210 ------- 0 0.0 3.1 42 58
r 1.15987 3 2 cbr 210 ------- 1 3.0 1.0 13 53
+ 1.15987 2 1 cbr 210 ------- 1 3.0 1.0 13 53
- 1.15987 2 1 cbr 210 ------- 1 3.0 1.0 13 53
+ 1.16 3 2 cbr 210 ------- 1 3.0 1.0 16 59
- 1.16 3 2 cbr 210 ------- 1 3.0 1.0 16 59
+ 1.16125 0 2 cbr 210 ------- 0 0.0 3.1 43 60
- 1.16125 0 2 cbr 210 ------- 0 0.0 3.1 43 60
r 1.162206 2 1 cbr 210 ------- 1 3.0 1.0 13 53
r 1.163456 2 3 cbr 210 ------- 0 0.0 3.1 40 54
r 1.163586 0 2 cbr 210 ------- 0 0.0 3.1 43 60
+ 1.163586 2 3 cbr 210 ------- 0 0.0 3.1 43 60
- 1.163586 2 3 cbr 210 ------- 0 0.0 3.1 43 60
r 1.16362 3 2 cbr 210 ------- 1 3.0 1.0 14 55
+ 1.16362 2 1 cbr 210 ------- 1 3.0 1.0 14 55
- 1.16362 2 1 cbr 210 ------- 1 3.0 1.0 14 55
+ 1.16375 3 2 cbr 210 ------- 1 3.0 1.0 17 61
- 1.16375 3 2 cbr 210 ------- 1 3.0 1.0 17 61
+ 1.165 0 2 cbr 210 ------- 0 0.0 3.1 44 62
- 1.165 0 2 cbr 210 ------- 0 0.0 3.1 44 62
r 1.165956 2 1 cbr 210 ------- 1 3.0 1.0 14 55
r 1.167206 2 3 cbr 210 ------- 0 0.0 3.1 41 56
r 1.167336 0 2 cbr 210 ------- 0 0.0 3.1 44 62
+ 1.167336 2 3 cbr 210 ------- 0 0.0 3.1 44 62
- 1.167336 2 3 cbr 210 ------- 0 0.0 3.1 44 62
r 1.16737 3 2 cbr 210 ------- 1 3.0 1.0 15 57
+ 1.16737 2 1 cbr 210 ------- 1 3.0 1.0 15 57
- 1.16737 2 1 cbr 210 ------- 1 3.0 1.0 15 57
+ 1.1675 3 2 cbr 210 ------- 1 3.0 1.0 18 63
- 1.1675 3 2 cbr 210 ------- 1 3.0 1.0 18 63
+ 1.16875 0 2 cbr 210 ------- 0 0.0 3.1 45 64
- 1.16875 0 2 cbr 210 ------- 0 0.0 3.1 45 64
r 1.169706 2 1 cbr 210 ------- 1 3.0 1.0 15 57
r 1.170956 2 3 cbr 210 ------- 0 0.0 3.1 42 58
r 1.171086 0 2 cbr 210 ------- 0 0.0 3.1 45 64
+ 1.171086 2 3 cbr 210 ------- 0 0.0 3.1 45 64
- 1.171086 2 3 cbr 210 ------- 0 0.0 3.1 45 64
r 1.17112 3 2 cbr 210 ------- 1 3.0 1.0 16 59
+ 1.17112 2 1 cbr 210 ------- 1 3.0 1.0 16 59
- 1.17112 2 1 cbr 210 ------- 1 3.0 1.0 16 59
+ 1.17125 3 2 cbr 210 ------- 1 3.0 1.0 19 65
- 1.17125 3 2 cbr 210 ------- 1 3.0 1.0 19 65
+ 1.1725 0 2 cbr 210 ------- 0 0.0 3.1 46 66
- 1.1725 0 2 cbr 210 ------- 0 0.0 3.1 46 66
r 1.173456 2 1 cbr 210 ------- 1 3.0 1.0 16 59
r 1.174706 2 3 cbr 210 ------- 0 0.0 3.1 43 60
r 1.174836 0 2 cbr 210 ------- 0 0.0 3.1 46 66
+ 1.174836 2 3 cbr 210 ------- 0 0.0 3.1 46 66
- 1.174836 2 3 cbr 210 ------- 0 0.0 3.1 46 66
r 1.17487 3 2 cbr 210 ------- 1 3.0 1.0 17 61
+ 1.17487 2 1 cbr 210 ------- 1 3.0 1.0 17 61
- 1.17487 2 1 cbr 210 ------- 1 3.0 1.0 17 61
+ 1.175 3 2 cbr 210 ------- 1 3.0 1.0 20 67
- 1.175 3 2 cbr 210 ------- 1 3.0 1.0 20 67
+ 1.17625 0 2 cbr 210 ------- 0 0.0 3.1 47 68
- 1.17625 0 2 cbr 210 ------- 0 0.0 3.1 47 68
r 1.177206 2 1 cbr 210 ------- 1 3.0 1.0 17 61
r 1.178456 2 3 cbr 210 ------- 0 0.0 3.1 44 62
r 1.178586 0 2 cbr 210 ------- 0 0.0 3.1 47 68
+ 1.178586 2 3 cbr 210 ------- 0 0.0 3.1 47 68
- 1.178586 2 3 cbr 210 ------- 0 0.0 3.1 47 68
r 1.17862 3 2 cbr 210 ------- 1 3.0 1.0 18 63
+ 1.17862 2 1 cbr 210 ------- 1 3.0 1.0 18 63
- 1.17862 2 1 cbr 210 ------- 1 3.0 1.0 18 63
+ 1.17875 3 2 cbr 210 ------- 1 3.0 1.0 21 69
- 1.17875 3 2 cbr 210 ------- 1 3.0 1.0 21 69
+ 1.18 0 2 cbr 210 ------- 0 0.0 3.1 48 70
- 1.18 0 2 cbr 210 ------- 0 0.0 3.1 48 70
r 1.180956 2 1 cbr 210 ------- 1 3.0 1.0 18 63
r 1.182206 2 3 cbr 210 ------- 0 0.0 3.1 45 64
r 1.182336 0 2 cbr 210 ------- 0 0.0 3.1 48 70
+ 1.182336 2 3 cbr 210 ------- 0 0.0 3.1 48 70
- 1.182336 2 3 cbr 210 ------- 0 0.0 3.1 48 70
r 1.18237 3 2 cbr 210 ------- 1 3.0 1.0 19 65
+ 1.18237 2 1 cbr 210 ------- 1 3.0 1.0 19 65
- 1.18237 2 1 cbr 210 ------- 1 3.0 1.0 19 65
+ 1.1825 3 2 cbr 210 ------- 1 3.0 1.0 22 71
- 1.1825 3 2 cbr 210 ------- 1 3.0 1.0 22 71
+ 1.18375 0 2 cbr 210 ------- 0 0.0 3.1 49 72
- 1.18375 0 2 cbr 210 ------- 0 0.0 3.1 49 72
r 1.184706 2 1 cbr 210 ------- 1 3.0 1.0 19 65
r 1.185956 2 3 cbr 210 ------- 0 0.0 3.1 46 66
r 1.186086 0 2 cbr 210 ------- 0 0.0 3.1 49 72
+ 1.186086 2 3 cbr 210 ------- 0 0.0 3.1 49 72
- 1.186086 2 3 cbr 210 ------- 0 0.0 3.1 49 72
r 1.18612 3 2 cbr 210 ------- 1 3.0 1.0 20 67
+ 1.18612 2 1 cbr 210 ------- 1 3.0 1.0 20 67
- 1.18612 2 1 cbr 210 ------- 1 3.0 1.0 20 67
+ 1.18625 3 2 cbr 210 ------- 1 3.0 1.0 23 73
- 1.18625 3 2 cbr 210 ------- 1 3.0 1.0 23 73
+ 1.1875 0 2 cbr 210 ------- 0 0.0 3.1 50 74
- 1.1875 0 2 cbr 210 ------- 0 0.0 3.1 50 74
r 1.188456 2 1 cbr 210 ------- 1 3.0 1.0 20 67
r 1.189706 2 3 cbr 210 ------- 0 0.0 3.1 47 68
r 1.189836 0 2 cbr 210 ------- 0 0.0 3.1 50 74
+ 1.189836 2 3 cbr 210 ------- 0 0.0 3.1 50 74
- 1.189836 2 3 cbr 210 ------- 0 0.0 3.1 50 74
r 1.18987 3 2 cbr 210 ------- 1 3.0 1.0 21 69
+ 1.18987 2 1 cbr 210 ------- 1 3.0 1.0 21 69
- 1.18987 2 1 cbr 210 ------- 1 3.0 1.0 21 69
+ 1.19 3 2 cbr 210 ------- 1 3.0 1.0 24 75
- 1.19 3 2 cbr 210 ------- 1 3.0 1.0 24 75
+ 1.19125 0 2 cbr 210 ------- 0 0.0 3.1 51 76
- 1.19125 0 2 cbr 210 ------- 0 0.0 3.1 51 76
r 1.192206 2 1 cbr 210 ------- 1 3.0 1.0 21 69
r 1.193456 2 3 cbr 210 ------- 0 0.0 3.1 48 70
r 1.193586 0 2 cbr 210 ------- 0 0.0 3.1 51 76
+ 1.193586 2 3 cbr 210 ------- 0 0.0 3.1 51 76
- 1.193586 2 3 cbr 210 ------- 0 0.0 3.1 51 76
r 1.19362 3 2 cbr 210 ------- 1 3.0 1.0 22 71
+ 1.19362 2 1 cbr 210 ------- 1 3.0 1.0 22 71
- 1.19362 2 1 cbr 210 ------- 1 3.0 1.0 22 71
+ 1.19375 3 2 cbr 210 ------- 1 3.0 1.0 25 77
- 1.19375 3 2 cbr 210 ------- 1 3.0 1.0 25 77
+ 1.195 0 2 cbr 210 ------- 0 0.0 3.1 52 78
- 1.195 0 2 cbr 210 ------- 0 0.0 3.1 52 78
r 1.195956 2 1 cbr 210 ------- 1 3.0 1.0 22 71
r 1.197206 2 3 cbr 210 ------- 0 0.0 3.1 49 72
r 1.197336 0 2 cbr 210 ------- 0 0.0 3.1 52 78
+ 1.197336 2 3 cbr 210 ------- 0 0.0 3.1 52 78
- 1.197336 2 3 cbr 210 ------- 0 0.0 3.1 52 78
r 1.19737 3 2 cbr 210 ------- 1 3.0 1.0 23 73
+ 1.19737 2 1 cbr 210 ------- 1 3.0 1.0 23 73
- 1.19737 2 1 cbr 210 ------- 1 3.0 1.0 23 73
+ 1.1975 3 2 cbr 210 ------- 1 3.0 1.0 26 79
- 1.1975 3 2 cbr 210 ------- 1 3.0 1.0 26 79
+ 1.19875 0 2 cbr 210 ------- 0 0.0 3.1 53 80
- 1.19875 0 2 cbr 210 ------- 0 0.0 3.1 53 80
r 1.199706 2 1 cbr 210 ------- 1 3.0 1.0 23 73
+ 1.2 2 5 cbr 210 ------- 0 2.0 5.0 0 81
- 1.2 2 5 cbr 210 ------- 0 2.0 5.0 0 81
r 1.200956 2 3 cbr 210 ------- 0 0.0 3.1 50 74
r 1.201086 0 2 cbr 210 ------- 0 0.0 3.1 53 80
+ 1.201086 2 3 cbr 210 ------- 0 0.0 3.1 53 80
- 1.201086 2 3 cbr 210 ------- 0 0.0 3.1 53 80
r 1.20112 3 2 cbr 210 ------- 1 3.0 1.0 24 75
+ 1.20112 2 1 cbr 210 ------- 1 3.0 1.0 24 75
- 1.20112 2 1 cbr 210 ------- 1 3.0 1.0 24 75
+ 1.20125 3 2 cbr 210 ------- 1 3.0 1.0 27 82
- 1.20125 3 2 cbr 210 ------- 1 3.0 1.0 27 82
+ 1.2025 0 2 cbr 210 ------- 0 0.0 3.1 54 83
- 1.2025 0 2 cbr 210 ------- 0 0.0 3.1 54 83
r 1.203456 2 1 cbr 210 ------- 1 3.0 1.0 24 75
+ 1.20375 2 5 cbr 210 ------- 0 2.0 5.0 1 84
- 1.20375 2 5 cbr 210 ------- 0 2.0 5.0 1 84
r 1.204706 2 3 cbr 210 ------- 0 0.0 3.1 51 76
r 1.204836 0 2 cbr 210 ------- 0 0.0 3.1 54 83
+ 1.204836 2 3 cbr 210 ------- 0 0.0 3.1 54 83
- 1.204836 2 3 cbr 210 ------- 0 0.0 3.1 54 83
r 1.20487 3 2 cbr 210 ------- 1 3.0 1.0 25 77
+ 1.20487 2 1 cbr 210 ------- 1 3.0 1.0 25 77
- 1.20487 2 1 cbr 210 ------- 1 3.0 1.0 25 77
+ 1.205 3 2 cbr 210 ------- 1 3.0 1.0 28 85
- 1.205 3 2 cbr 210 ------- 1 3.0 1.0 28 85
+ 1.20625 0 2 cbr 210 ------- 0 0.0 3.1 55 86
- 1.20625 0 2 cbr 210 ------- 0 0.0 3.1 55 86
r 1.207206 2 1 cbr 210 ------- 1 3.0 1.0 25 77
+ 1.2075 2 5 cbr 210 ------- 0 2.0 5.0 2 87
- 1.2075 2 5 cbr 210 ------- 0 2.0 5.0 2 87
r 1.208456 2 3 cbr 210 ------- 0 0.0 3.1 52 78
r 1.208586 0 2 cbr 210 ------- 0 0.0 3.1 55 86
+ 1.208586 2 3 cbr 210 ------- 0 0.0 3.1 55 86
- 1.208586 2 3 cbr 210 ------- 0 0.0 3.1 55 86
r 1.20862 3 2 cbr 210 ------- 1 3.0 1.0 26 79
+ 1.20862 2 1 cbr 210 ------- 1 3.0 1.0 26 79
- 1.20862 2 1 cbr 210 ------- 1 3.0 1.0 26 79
+ 1.20875 3 2 cbr 210 ------- 1 3.0 1.0 29 88
- 1.20875 3 2 cbr 210 ------- 1 3.0 1.0 29 88
+ 1.21 0 2 cbr 210 ------- 0 0.0 3.1 56 89
- 1.21 0 2 cbr 210 ------- 0 0.0 3.1 56 89
r 1.210956 2 1 cbr 210 ------- 1 3.0 1.0 26 79
r 1.21112 2 5 cbr 210 ------- 0 2.0 5.0 0 81
+ 1.21125 2 5 cbr 210 ------- 0 2.0 5.0 3 90
- 1.21125 2 5 cbr 210 ------- 0 2.0 5.0 3 90
r 1.212206 2 3 cbr 210 ------- 0 0.0 3.1 53 80
r 1.212336 0 2 cbr 210 ------- 0 0.0 3.1 56 89
+ 1.212336 2 3 cbr 210 ------- 0 0.0 3.1 56 89
- 1.212336 2 3 cbr 210 ------- 0 0.0 3.1 56 89
r 1.21237 3 2 cbr 210 ------- 1 3.0 1.0 27 82
+ 1.21237 2 1 cbr 210 ------- 1 3.0 1.0 27 82
- 1.21237 2 1 cbr 210 ------- 1 3.0 1.0 27 82
+ 1.2125 3 2 cbr 210 ------- 1 3.0 1.0 30 91
- 1.2125 3 2 cbr 210 ------- 1 3.0 1.0 30 91
+ 1.21375 0 2 cbr 210 ------- 0 0.0 3.1 57 92
- 1.21375 0 2 cbr 210 ------- 0 0.0 3.1 57 92
r 1.214706 2 1 cbr 210 ------- 1 3.0 1.0 27 82
r 1.21487 2 5 cbr 210 ------- 0 2.0 5.0 1 84
+ 1.215 2 5 cbr 210 ------- 0 2.0 5.0 4 93
- 1.215 2 5 cbr 210 ------- 0 2.0 5.0 4 93
r 1.215956 2 3 cbr 210 ------- 0 0.0 3.1 54 83
r 1.216086 0 2 cbr 210 ------- 0 0.0 3.1 57 92
+ 1.216086 2 3 cbr 210 ------- 0 0.0 3.1 57 92
- 1.216086 2 3 cbr 210 ------- 0 0.0 3.1 57 92
r 1.21612 3 2 cbr 210 ------- 1 3.0 1.0 28 85
+ 1.21612 2 1 cbr 210 ------- 1 3.0 1.0 28 85
- 1.21612 2 1 cbr 210 ------- 1 3.0 1.0 28 85
+ 1.21625 3 2 cbr 210 ------- 1 3.0 1.0 31 94
- 1.21625 3 2 cbr 210 ------- 1 3.0 1.0 31 94
+ 1.2175 0 2 cbr 210 ------- 0 0.0 3.1 58 95
- 1.2175 0 2 cbr 210 ------- 0 0.0 3.1 58 95
r 1.218456 2 1 cbr 210 ------- 1 3.0 1.0 28 85
r 1.21862 2 5 cbr 210 ------- 0 2.0 5.0 2 87
+ 1.21875 2 5 cbr 210 ------- 0 2.0 5.0 5 96
- 1.21875 2 5 cbr 210 ------- 0 2.0 5.0 5 96
r 1.219706 2 3 cbr 210 ------- 0 0.0 3.1 55 86
r 1.219836 0 2 cbr 210 ------- 0 0.0 3.1 58 95
+ 1.219836 2 3 cbr 210 ------- 0 0.0 3.1 58 95
- 1.219836 2 3 cbr 210 ------- 0 0.0 3.1 58 95
r 1.21987 3 2 cbr 210 ------- 1 3.0 1.0 29 88
+ 1.21987 2 1 cbr 210 ------- 1 3.0 1.0 29 88
- 1.21987 2 1 cbr 210 ------- 1 3.0 1.0 29 88
+ 1.22 3 2 cbr 210 ------- 1 3.0 1.0 32 97
- 1.22 3 2 cbr 210 ------- 1 3.0 1.0 32 97
+ 1.22125 0 2 cbr 210 ------- 0 0.0 3.1 59 98
- 1.22125 0 2 cbr 210 ------- 0 0.0 3.1 59 98
r 1.222206 2 1 cbr 210 ------- 1 3.0 1.0 29 88
r 1.22237 2 5 cbr 210 ------- 0 2.0 5.0 3 90
+ 1.2225 2 5 cbr 210 ------- 0 2.0 5.0 6 99
- 1.2225 2 5 cbr 210 ------- 0 2.0 5.0 6 99
r 1.223456 2 3 cbr 210 ------- 0 0.0 3.1 56 89
r 1.223586 0 2 cbr 210 ------- 0 0.0 3.1 59 98
+ 1.223586 2 3 cbr 210 ------- 0 0.0 3.1 59 98
- 1.223586 2 3 cbr 210 ------- 0 0.0 3.1 59 98
r 1.22362 3 2 cbr 210 ------- 1 3.0 1.0 30 91
+ 1.22362 2 1 cbr 210 ------- 1 3.0 1.0 30 91
- 1.22362 2 1 cbr 210 ------- 1 3.0 1.0 30 91
+ 1.22375 3 2 cbr 210 ------- 1 3.0 1.0 33 100
- 1.22375 3 2 cbr 210 ------- 1 3.0 1.0 33 100
+ 1.225 0 2 cbr 210 ------- 0 0.0 3.1 60 101
- 1.225 0 2 cbr 210 ------- 0 0.0 3.1 60 101
r 1.225956 2 1 cbr 210 ------- 1 3.0 1.0 30 91
r 1.22612 2 5 cbr 210 ------- 0 2.0 5.0 4 93
+ 1.22625 2 5 cbr 210 ------- 0 2.0 5.0 7 102
- 1.22625 2 5 cbr 210 ------- 0 2.0 5.0 7 102
r 1.227206 2 3 cbr 210 ------- 0 0.0 3.1 57 92
r 1.227336 0 2 cbr 210 ------- 0 0.0 3.1 60 101
+ 1.227336 2 3 cbr 210 ------- 0 0.0 3.1 60 101
- 1.227336 2 3 cbr 210 ------- 0 0.0 3.1 60 101
r 1.22737 3 2 cbr 210 ------- 1 3.0 1.0 31 94
+ 1.22737 2 1 cbr 210 ------- 1 3.0 1.0 31 94
- 1.22737 2 1 cbr 210 ------- 1 3.0 1.0 31 94
+ 1.2275 3 2 cbr 210 ------- 1 3.0 1.0 34 103
- 1.2275 3 2 cbr 210 ------- 1 3.0 1.0 34 103
+ 1.22875 0 2 cbr 210 ------- 0 0.0 3.1 61 104
- 1.22875 0 2 cbr 210 ------- 0 0.0 3.1 61 104
r 1.229706 2 1 cbr 210 ------- 1 3.0 1.0 31 94
r 1.22987 2 5 cbr 210 ------- 0 2.0 5.0 5 96
+ 1.23 2 5 cbr 210 ------- 0 2.0 5.0 8 105
- 1.23 2 5 cbr 210 ------- 0 2.0 5.0 8 105
r 1.230956 2 3 cbr 210 ------- 0 0.0 3.1 58 95
r 1.231086 0 2 cbr 210 ------- 0 0.0 3.1 61 104
+ 1.231086 2 3 cbr 210 ------- 0 0.0 3.1 61 104
- 1.231086 2 3 cbr 210 ------- 0 0.0 3.1 61 104
r 1.23112 3 2 cbr 210 ------- 1 3.0 1.0 32 97
+ 1.23112 2 1 cbr 210 ------- 1 3.0 1.0 32 97
- 1.23112 2 1 cbr 210 ------- 1 3.0 1.0 32 97
+ 1.23125 3 2 cbr 210 ------- 1 3.0 1.0 35 106
- 1.23125 3 2 cbr 210 ------- 1 3.0 1.0 35 106
+ 1.2325 0 2 cbr 210 ------- 0 0.0 3.1 62 107
- 1.2325 0 2 cbr 210 ------- 0 0.0 3.1 62 107
r 1.233456 2 1 cbr 210 ------- 1 3.0 1.0 32 97
r 1.23362 2 5 cbr 210 ------- 0 2.0 5.0 6 99
+ 1.23375 2 5 cbr 210 ------- 0 2.0 5.0 9 108
- 1.23375 2 5 cbr 210 ------- 0 2.0 5.0 9 108
r 1.234706 2 3 cbr 210 ------- 0 0.0 3.1 59 98
r 1.234836 0 2 cbr 210 ------- 0 0.0 3.1 62 107
+ 1.234836 2 3 cbr 210 ------- 0 0.0 3.1 62 107
- 1.234836 2 3 cbr 210 ------- 0 0.0 3.1 62 107
r 1.23487 3 2 cbr 210 ------- 1 3.0 1.0 33 100
+ 1.23487 2 1 cbr 210 ------- 1 3.0 1.0 33 100
- 1.23487 2 1 cbr 210 ------- 1 3.0 1.0 33 100
+ 1.235 3 2 cbr 210 ------- 1 3.0 1.0 36 109
- 1.235 3 2 cbr 210 ------- 1 3.0 1.0 36 109
+ 1.23625 0 2 cbr 210 ------- 0 0.0 3.1 63 110
- 1.23625 0 2 cbr 210 ------- 0 0.0 3.1 63 110
r 1.237206 2 1 cbr 210 ------- 1 3.0 1.0 33 100
r 1.23737 2 5 cbr 210 ------- 0 2.0 5.0 7 102
+ 1.2375 2 5 cbr 210 ------- 0 2.0 5.0 10 111
- 1.2375 2 5 cbr 210 ------- 0 2.0 5.0 10 111
r 1.238456 2 3 cbr 210 ------- 0 0.0 3.1 60 101
r 1.238586 0 2 cbr 210 ------- 0 0.0 3.1 63 110
+ 1.238586 2 3 cbr 210 ------- 0 0.0 3.1 63 110
- 1.238586 2 3 cbr 210 ------- 0 0.0 3.1 63 110
r 1.23862 3 2 cbr 210 ------- 1 3.0 1.0 34 103
+ 1.23862 2 1 cbr 210 ------- 1 3.0 1.0 34 103
- 1.23862 2 1 cbr 210 ------- 1 3.0 1.0 34 103
+ 1.23875 3 2 cbr 210 ------- 1 3.0 1.0 37 112
- 1.23875 3 2 cbr 210 ------- 1 3.0 1.0 37 112
+ 1.24 0 2 cbr 210 ------- 0 0.0 3.1 64 113
- 1.24 0 2 cbr 210 ------- 0 0.0 3.1 64 113
r 1.240956 2 1 cbr 210 ------- 1 3.0 1.0 34 103
r 1.24112 2 5 cbr 210 ------- 0 2.0 5.0 8 105
+ 1.24125 2 5 cbr 210 ------- 0 2.0 5.0 11 114
- 1.24125 2 5 cbr 210 ------- 0 2.0 5.0 11 114
r 1.242206 2 3 cbr 210 ------- 0 0.0 3.1 61 104
r 1.242336 0 2 cbr 210 ------- 0 0.0 3.1 64 113
+ 1.242336 2 3 cbr 210 ------- 0 0.0 3.1 64 113
- 1.242336 2 3 cbr 210 ------- 0 0.0 3.1 64 113
r 1.24237 3 2 cbr 210 ------- 1 3.0 1.0 35 106
+ 1.24237 2 1 cbr 210 ------- 1 3.0 1.0 35 106
- 1.24237 2 1 cbr 210 ------- 1 3.0 1.0 35 106
+ 1.2425 3 2 cbr 210 ------- 1 3.0 1.0 38 115
- 1.2425 3 2 cbr 210 ------- 1 3.0 1.0 38 115
+ 1.24375 0 2 cbr 210 ------- 0 0.0 3.1 65 116
- 1.24375 0 2 cbr 210 ------- 0 0.0 3.1 65 116
r 1.244706 2 1 cbr 210 ------- 1 3.0 1.0 35 106
r 1.24487 2 5 cbr 210 ------- 0 2.0 5.0 9 108
+ 1.245 2 5 cbr 210 ------- 0 2.0 5.0 12 117
- 1.245 2 5 cbr 210 ------- 0 2.0 5.0 12 117
r 1.245956 2 3 cbr 210 ------- 0 0.0 3.1 62 107
r 1.246086 0 2 cbr 210 ------- 0 0.0 3.1 65 116
+ 1.246086 2 3 cbr 210 ------- 0 0.0 3.1 65 116
- 1.246086 2 3 cbr 210 ------- 0 0.0 3.1 65 116